
    -----------------------------------------------------------------------
          Psi4: An Open-Source Ab Initio Electronic Structure Package
                               Psi4 1.10a1.dev45 

                         Git: Rev {dlpno_ccsd_t_1_9} c9f084a dirty


    D. G. A. Smith, L. A. Burns, A. C. Simmonett, R. M. Parrish,
    M. C. Schieber, R. Galvelis, P. Kraus, H. Kruse, R. Di Remigio,
    A. Alenaizan, A. M. James, S. Lehtola, J. P. Misiewicz, M. Scheurer,
    R. A. Shaw, J. B. Schriber, Y. Xie, Z. L. Glick, D. A. Sirianni,
    J. S. O'Brien, J. M. Waldrop, A. Kumar, E. G. Hohenstein,
    B. P. Pritchard, B. R. Brooks, H. F. Schaefer III, A. Yu. Sokolov,
    K. Patkowski, A. E. DePrince III, U. Bozkaya, R. A. King,
    F. A. Evangelista, J. M. Turney, T. D. Crawford, C. D. Sherrill,
    J. Chem. Phys. 152(18) 184108 (2020). https://doi.org/10.1063/5.0006002

                            Additional Code Authors
    E. T. Seidl, C. L. Janssen, E. F. Valeev, M. L. Leininger,
    J. F. Gonthier, R. M. Richard, H. R. McAlexander, M. Saitow, X. Wang,
    P. Verma, M. H. Lechner, A. Jiang, S. Behnle, A. G. Heide,
    M. F. Herbst, and D. L. Poole

             Previous Authors, Complete List of Code Contributors,
                       and Citations for Specific Modules
    https://github.com/psi4/psi4/blob/master/codemeta.json
    https://github.com/psi4/psi4/graphs/contributors
    http://psicode.org/psi4manual/master/introduction.html#citing-psifour

    -----------------------------------------------------------------------


    Psi4 started on: Friday, 16 August 2024 10:33AM

    Process ID: 1405408
    Host:       b6-14
    PSIDATADIR: /home/aj48384/github/psi4/objdir_p4sums/stage/share/psi4
    Memory:     500.0 MiB
    Threads:    1
    
  ==> Input File <==

--------------------------------------------------------------------------

# PYTHONPATH must include directory above plugin directory.
#     Define either externally or here, then import plugin.
sys.path.insert(0, './..')
import dlpno_ccsdt_q

molecule {
O
H 1 R
H 1 R 2 A

R = .96
A = 104.5
symmetry c1
}

set {
  scf_type df
  basis cc-pvdz
  df_basis_mp2 cc-pvdz-ri
  pno_convergence tight
  freeze_core true
  e_convergence 1.0e-8
  r_convergence 1.0e-8
  t_cut_pno 0.0
  t_cut_do 0.0
  t_cut_do_ij 0.0
  t_cut_do_uv 0.0
  t_cut_pre 0.0
  t_cut_do_pre 0.0
  t_cut_pairs 0.0
  t_cut_mkn 0.0
  t_cut_clmo 0.0
  t_cut_cpao 0.0
  f_cut 0.0
  t_cut_tno 0.0
  t_cut_tno_pre 0.0
  t_cut_mkn_triples_pre 0.0
  t_cut_do_triples_pre 0.0
  t_cut_triples_weak 0.0
  t_cut_mkn_triples 0.0
  t_cut_do_triples 0.0
  f_cut_t 0.0
  t_cut_iter 0.0
  dlpno_local_orbitals boys
}

set dlpno_ccsdt_q {
  print 1
}

energy('dlpno_ccsdt_q')

dlpno_ccsdt_q.exampleFN()
--------------------------------------------------------------------------

Scratch directory: /tmp/
   => Libint2 <=

    Primary   basis highest AM E, G, H:  6, 6, 3
    Auxiliary basis highest AM E, G, H:  7, 7, 4
    Onebody   basis highest AM E, G, H:  -, -, -
    Solid Harmonics ordering:            Gaussian

*** tstart() called on b6-14
*** at Fri Aug 16 10:33:23 2024

   => Loading Basis Set <=

    Name: CC-PVDZ
    Role: ORBITAL
    Keyword: BASIS
    atoms 1   entry O          line   198 file /home/aj48384/github/psi4/objdir_p4sums/stage/share/psi4/basis/cc-pvdz.gbs 
    atoms 2-3 entry H          line    22 file /home/aj48384/github/psi4/objdir_p4sums/stage/share/psi4/basis/cc-pvdz.gbs 


         ---------------------------------------------------------
                                   SCF
               by Justin Turney, Rob Parrish, Andy Simmonett
                          and Daniel G. A. Smith
                              RHF Reference
                        1 Threads,    500 MiB Core
         ---------------------------------------------------------

  ==> Geometry <==

    Molecular point group: c1
    Full point group: C2v

    Geometry (in Angstrom), charge = 0, multiplicity = 1:

       Center              X                  Y                   Z               Mass       
    ------------   -----------------  -----------------  -----------------  -----------------
         O            0.000000000000     0.000000000000    -0.065775570547    15.994914619570
         H            0.000000000000    -0.759061990794     0.521953018286     1.007825032230
         H            0.000000000000     0.759061990794     0.521953018286     1.007825032230

  Running in c1 symmetry.

  Rotational constants: A =     27.26297  B =     14.51533  C =      9.47217 [cm^-1]
  Rotational constants: A = 817323.21126  B = 435158.60141  C = 283968.37536 [MHz]
  Nuclear repulsion =    9.168193296424349

  Charge       = 0
  Multiplicity = 1
  Electrons    = 10
  Nalpha       = 5
  Nbeta        = 5

  ==> Algorithm <==

  SCF Algorithm Type is DF.
  DIIS enabled.
  MOM disabled.
  Fractional occupation disabled.
  Guess Type is SAD.
  Energy threshold   = 1.00e-08
  Density threshold  = 1.00e-08
  Integral threshold = 1.00e-12

  ==> Primary Basis <==

  Basis Set: CC-PVDZ
    Blend: CC-PVDZ
    Number of shells: 12
    Number of basis functions: 24
    Number of Cartesian functions: 25
    Spherical Harmonics?: true
    Max angular momentum: 2

   => Loading Basis Set <=

    Name: (CC-PVDZ AUX)
    Role: JKFIT
    Keyword: DF_BASIS_SCF
    atoms 1   entry O          line   221 file /home/aj48384/github/psi4/objdir_p4sums/stage/share/psi4/basis/cc-pvdz-jkfit.gbs 
    atoms 2-3 entry H          line    51 file /home/aj48384/github/psi4/objdir_p4sums/stage/share/psi4/basis/cc-pvdz-jkfit.gbs 

  ==> Integral Setup <==

  DFHelper Memory: AOs need 0.001 GiB; user supplied 0.366 GiB. 
  SCF_SUBTYPE=INCORE selected. In-core MEM_DF algorithm will be used.
  Using in-core AOs.

  ==> MemDFJK: Density-Fitted J/K Matrices <==

    J tasked:                   Yes
    K tasked:                   Yes
    wK tasked:                   No
    OpenMP threads:               1
    Memory [MiB]:               375
    Algorithm:                 Core
    Schwarz Cutoff:           1E-12
    Mask sparsity (%):       0.0000
    Fitting Condition:        1E-10

   => Auxiliary Basis Set <=

  Basis Set: (CC-PVDZ AUX)
    Blend: CC-PVDZ-JKFIT
    Number of shells: 42
    Number of basis functions: 116
    Number of Cartesian functions: 131
    Spherical Harmonics?: true
    Max angular momentum: 3

  Minimum eigenvalue in the overlap matrix is 3.4377086613E-02.
  Reciprocal condition number of the overlap matrix is 9.2817797819E-03.
    Using symmetric orthogonalization.

  ==> Pre-Iterations <==

  SCF Guess: Superposition of Atomic Densities via on-the-fly atomic UHF (no occupation information).

   -------------------------
    Irrep   Nso     Nmo    
   -------------------------
     A         24      24 
   -------------------------
    Total      24      24
   -------------------------

  ==> Iterations <==

                           Total Energy        Delta E     RMS |[F,P]|

   @DF-RHF iter SAD:   -75.50772041125603   -7.55077e+01   0.00000e+00 
   @DF-RHF iter   1:   -75.95376270516371   -4.46042e-01   1.74061e-02 DIIS/ADIIS
   @DF-RHF iter   2:   -76.00706363301556   -5.33009e-02   9.96851e-03 DIIS/ADIIS
   @DF-RHF iter   3:   -76.02615671349312   -1.90931e-02   1.06884e-03 DIIS/ADIIS
   @DF-RHF iter   4:   -76.02661223626109   -4.55523e-04   2.10086e-04 DIIS/ADIIS
   @DF-RHF iter   5:   -76.02663177945122   -1.95432e-05   3.85634e-05 DIIS
   @DF-RHF iter   6:   -76.02663270867961   -9.29228e-07   6.09957e-06 DIIS
   @DF-RHF iter   7:   -76.02663273456423   -2.58846e-08   8.53454e-07 DIIS
   @DF-RHF iter   8:   -76.02663273508864   -5.24409e-10   1.99393e-07 DIIS
   @DF-RHF iter   9:   -76.02663273512186   -3.32250e-11   3.36929e-08 DIIS
   @DF-RHF iter  10:   -76.02663273512266   -7.95808e-13   2.78588e-09 DIIS
  Energy and wave function converged.


  ==> Post-Iterations <==

    Orbital Energies [Eh]
    ---------------------

    Doubly Occupied:                                                      

       1A    -20.550925     2A     -1.335311     3A     -0.697803  
       4A     -0.566087     5A     -0.492948  

    Virtual:                                                              

       6A      0.185107     7A      0.255846     8A      0.787336  
       9A      0.851826    10A      1.163856    11A      1.200424  
      12A      1.253573    13A      1.445291    14A      1.476011  
      15A      1.674661    16A      1.868110    17A      1.932579  
      18A      2.446529    19A      2.483817    20A      3.283958  
      21A      3.336669    22A      3.507634    23A      3.863421  
      24A      4.144760  

    Final Occupation by Irrep:
              A 
    DOCC [     5 ]
    NA   [     5 ]
    NB   [     5 ]

  @DF-RHF Final Energy:   -76.02663273512266

   => Energetics <=

    Nuclear Repulsion Energy =              9.1681932964243487
    One-Electron Energy =                -123.1035071851672456
    Two-Electron Energy =                  37.9086811536202433
    Total Energy =                        -76.0266327351226607

Computation Completed


Properties will be evaluated at   0.000000,   0.000000,   0.000000 [a0]

Properties computed using the SCF density matrix


 Multipole Moments:

 ------------------------------------------------------------------------------------
     Multipole            Electronic (a.u.)      Nuclear  (a.u.)        Total (a.u.)
 ------------------------------------------------------------------------------------

 L = 1.  Multiply by 2.5417464519 to convert [e a0] to [Debye]
 Dipole X            :          0.0000000            0.0000000            0.0000000
 Dipole Y            :         -0.0000000            0.0000000           -0.0000000
 Dipole Z            :         -0.1680332            0.9783140            0.8102808
 Magnitude           :                                                    0.8102808

 ------------------------------------------------------------------------------------

*** tstop() called on b6-14 at Fri Aug 16 10:33:23 2024
Module time:
	user time   =       0.24 seconds =       0.00 minutes
	system time =       0.05 seconds =       0.00 minutes
	total time  =          0 seconds =       0.00 minutes
Total time:
	user time   =       0.24 seconds =       0.00 minutes
	system time =       0.05 seconds =       0.00 minutes
	total time  =          0 seconds =       0.00 minutes
 MINTS: Wrapper to libmints.
   by Justin Turney

   Calculation information:
      Number of threads:                 1
      Number of atoms:                   3
      Number of AO shells:              12
      Number of SO shells:              12
      Number of primitives:             32
      Number of atomic orbitals:        25
      Number of basis functions:        24

      Number of irreps:                  1
      Integral cutoff                 1.00e-12
      Number of functions per irrep: [  24 ]

 OEINTS: Overlap, kinetic, potential, dipole, and quadrupole integrals
         stored in file 35.

      Computing two-electron integrals...done
      Computed 21643 non-zero two-electron integrals.
        Stored in file 33.

   => Loading Basis Set <=

    Name: CC-PVDZ-RI
    Role: RIFIT
    Keyword: DF_BASIS_MP2
    atoms 1   entry O          line   235 file /home/aj48384/github/psi4/objdir_p4sums/stage/share/psi4/basis/cc-pvdz-ri.gbs 
    atoms 2-3 entry H          line    19 file /home/aj48384/github/psi4/objdir_p4sums/stage/share/psi4/basis/cc-pvdz-ri.gbs 


Reading options from the DLPNO_CCSDT_Q block
Calling plugin dlpno_ccsdt_q.so.


Plugins that use gradients: set Da, Db, and Lagrangian for gradient theory on the wavefunction. The old way of passing these will stop working as soon as 1.8.   --------------------------------------------
                    DLPNO-CCSD                 
                   by Andy Jiang               
   --------------------------------------------

  DLPNO convergence set to TIGHT.

  Detailed DLPNO thresholds and cutoffs:
    T_CUT_PNO        = 0.0000e+00 
    DIAG_SCALE       = 1.0000e-03 
    T_CUT_TRACE      = 9.9900e-01 
    T_CUT_ENERGY     = 9.9700e-01 
    T_CUT_PAIRS      = 0.0000e+00 
    T_CUT_PRE        = 0.0000e+00 
    T_CUT_DO_PRE     = 0.0000e+00 
    T_CUT_MKN        = 0.0000e+00 
    T_CUT_PNO_MP2    = 0.0000e+00 
    T_CUT_TRACE_MP2  = 9.9990e-01 
    T_CUT_ENERGY_MP2 = 9.9900e-01 
    T_CUT_DO         = 0.0000e+00 
    T_CUT_DO_ij      = 0.0000e+00 
    T_CUT_DO_uv      = 0.0000e+00 
    T_CUT_CLMO       = 0.0000e+00 
    T_CUT_CPAO       = 0.0000e+00 
    S_CUT            = 1.0000e-08 
    F_CUT            = 0.0000e+00 
    INTS_TOL (AO)    = 1.0000e-10 


  ==> Basis Set Information <==

   ----------------------------------------------
      NBF   NFRZC   NACT   NDOCC   NVIR   NAUX   
   ----------------------------------------------
       24      1      4       5      19     84
   ----------------------------------------------

  ==> Boys Localizer <==

    Convergence =   1.000E-12
    Maxiter     =        1000

    Iteration                   Metric       Residual
    @Boys    0   1.7922209550475166E-01              -
    @Boys    1   2.2108679307070567E+00   1.133591E+01
    @Boys    2   2.5042570254234660E+00   1.327031E-01
    @Boys    3   2.5432658614244668E+00   1.557701E-02
    @Boys    4   2.5482861724406085E+00   1.973962E-03
    @Boys    5   2.5486620572139307E+00   1.475049E-04
    @Boys    6   2.5487337589655623E+00   2.813309E-05
    @Boys    7   2.5487441041615559E+00   4.058955E-06
    @Boys    8   2.5487459866504372E+00   7.385947E-07
    @Boys    9   2.5487462326154975E+00   9.650434E-08
    @Boys   10   2.5487463039405096E+00   2.798435E-08
    @Boys   11   2.5487463114871489E+00   2.960922E-09
    @Boys   12   2.5487463132005712E+00   6.722608E-10
    @Boys   13   2.5487463134858208E+00   1.119176E-10
    @Boys   14   2.5487463135297928E+00   1.725238E-11
    @Boys   15   2.5487463135354385E+00   2.215091E-12
    @Boys   16   2.5487463135362018E+00   2.995156E-13

    Boys Localizer converged.

  Starting Crude Prescreening...
    T_CUT_MKN set to 0.000e+00
    T_CUT_DO  set to 0.000e+00

  ==> Forming Local MO Domains <==

    Auxiliary BFs per Local MO:
      Average =   84 AUX BFs (3 atoms)
      Min     =   84 AUX BFs (3 atoms)
      Max     =   84 AUX BFs (3 atoms)
  
    Projected AOs per Local MO:
      Average =   24 PAOs (3 atoms)
      Min     =   24 PAOs (3 atoms)
      Max     =   24 PAOs (3 atoms)

    Local MOs per Local MO:
      Average =    4 LMOs
      Min     =    4 LMOs
      Max     =    4 LMOs
 
    Screened 0 of 16 LMO pairs (0.00 %)
             0 pairs met overlap criteria
             4 pairs met energy criteria
 
    Screened LMO pair energy =  0.000000000000 

  ==> Merging LMO Domains into LMO Pair Domains <==
  
    Auxiliary BFs per Local MO pair:
      Average =   84 AUX BFs (3 atoms)
      Min     =   84 AUX BFs (3 atoms)
      Max     =   84 AUX BFs (3 atoms)
  
    Local MOs per Local MO pair:
      Average =    4 LMOs
      Min     =    4 LMOs
      Max     =    4 LMOs
  
    Projected AOs per Local MO pair:
      Average =   24 PAOs (3 atoms)
      Min     =   24 PAOs (3 atoms)
      Max     =   24 PAOs (3 atoms)

  ==> Transforming 3-Index Integrals to LMO/PAO basis <==

  ==> Determining Strong and Weak Pairs (Crude Prescreening Step) <==

  ==> Computing SC-LMP2 Pair Energies <==

    Starting semicanonical (non-iterative) LMP2 step...

    PAO-SC-LMP2 Energy:  -0.195322223654

    Eliminated Pairs                = 0
    (Initial) Weak Pairs            = 0
    (Initial) Strong Pairs          = 16
    Surviving Pairs / Total Pairs   = (100.00 %)
    Eliminated Pair dE              = 0.000000000000

  Starting Refined Prescreening...
    T_CUT_MKN reset to 0.000e+00
    T_CUT_DO  reset to 0.000e+00

  ==> Forming Local MO Domains <==

    Auxiliary BFs per Local MO:
      Average =   84 AUX BFs (3 atoms)
      Min     =   84 AUX BFs (3 atoms)
      Max     =   84 AUX BFs (3 atoms)
  
    Projected AOs per Local MO:
      Average =   24 PAOs (3 atoms)
      Min     =   24 PAOs (3 atoms)
      Max     =   24 PAOs (3 atoms)

    Local MOs per Local MO:
      Average =    4 LMOs
      Min     =    4 LMOs
      Max     =    4 LMOs
 

  ==> Merging LMO Domains into LMO Pair Domains <==
  
    Auxiliary BFs per Local MO pair:
      Average =   84 AUX BFs (3 atoms)
      Min     =   84 AUX BFs (3 atoms)
      Max     =   84 AUX BFs (3 atoms)
  
    Local MOs per Local MO pair:
      Average =    4 LMOs
      Min     =    4 LMOs
      Max     =    4 LMOs
  
    Projected AOs per Local MO pair:
      Average =   24 PAOs (3 atoms)
      Min     =   24 PAOs (3 atoms)
      Max     =   24 PAOs (3 atoms)

  ==> Transforming 3-Index Integrals to LMO/PAO basis <==

  ==> Determining Strong and Weak Pairs (Refined Prescreening Step) <==


  ==> Computing SC-LMP2 Pair Energies <==

    Starting semicanonical (non-iterative) LMP2 step...


  ==> Forming Pair Natural Orbitals (for LMP2) <==
    PAO-SC-LMP2 Energy:  -0.195322223654

  
    Natural Orbitals per Local MO pair:
      Avg:  19 NOs 
      Min:  19 NOs 
      Max:  19 NOs 
      Avg Occ Number Tol: 9.449e-08 
      Min Occ Number Tol: 4.688e-09 
      Max Occ Number Tol: 2.497e-07 
      Avg Trace Sum: 1.000000 
      Min Trace Sum: 1.000000 
      Max Trace Sum: 1.000000 
  
    PNO truncation energy = 0.000000000000
    (Additional) Eliminated Pairs   = 0
    (Final) Weak Pairs              = 0
    (Final) Strong Pairs            = 16
    Strong Pairs / Total Pairs      = (100.00 %)
    (Cumulative) Eliminated Pair dE = 0.000000000000
    Weak Pair dE                    = 0.000000000000


    Auxiliary BFs per Local MO:
      Average =   84 AUX BFs (3 atoms)
      Min     =   84 AUX BFs (3 atoms)
      Max     =   84 AUX BFs (3 atoms)
  
    Projected AOs per Local MO:
      Average =   24 PAOs (3 atoms)
      Min     =   24 PAOs (3 atoms)
      Max     =   24 PAOs (3 atoms)

    Local MOs per Local MO:
      Average =    4 LMOs
      Min     =    4 LMOs
      Max     =    4 LMOs
 

  ==> Merging LMO Domains into LMO Pair Domains <==
  
    Auxiliary BFs per Local MO pair:
      Average =   84 AUX BFs (3 atoms)
      Min     =   84 AUX BFs (3 atoms)
      Max     =   84 AUX BFs (3 atoms)
  
    Local MOs per Local MO pair:
      Average =    4 LMOs
      Min     =    4 LMOs
      Max     =    4 LMOs
  
    Projected AOs per Local MO pair:
      Average =   24 PAOs (3 atoms)
      Min     =   24 PAOs (3 atoms)
      Max     =   24 PAOs (3 atoms)
  ==> PNO-LMP2 Memory Estimate <== 

    PNO/PNO overlaps       : 0.000 [GiB]
    Total Memory Given     : 0.488 [GiB]


  ==> Iterative Local MP2 with Pair Natural Orbitals (PNOs) <==

    E_CONVERGENCE = 1.00e-10
    R_CONVERGENCE = 1.00e-10

                         Corr. Energy    Delta E     Max R     Time (s)
  @PNO-LMP2 iter   0:  -0.199602147660 -1.996e-01  1.302e-03        0
  @PNO-LMP2 iter   1:  -0.201636633577 -2.034e-03  3.510e-04        0
  @PNO-LMP2 iter   2:  -0.201772530797 -1.359e-04  6.951e-05        0
  @PNO-LMP2 iter   3:  -0.201790617183 -1.809e-05  1.372e-05        0
  @PNO-LMP2 iter   4:  -0.201791651972 -1.035e-06  1.596e-06        0
  @PNO-LMP2 iter   5:  -0.201791833430 -1.815e-07  2.836e-07        0
  @PNO-LMP2 iter   6:  -0.201791834798 -1.368e-09  5.137e-08        0
  @PNO-LMP2 iter   7:  -0.201791817749  1.705e-08  1.062e-08        0
  @PNO-LMP2 iter   8:  -0.201791816051  1.698e-09  1.808e-09        0
  @PNO-LMP2 iter   9:  -0.201791815225  8.260e-10  3.521e-10        0
  @PNO-LMP2 iter  10:  -0.201791815204  2.110e-11  9.480e-11        0

  ==> Forming Pair Natural Orbitals (for LCCSD) <==
  
    Natural Orbitals per Local MO pair:
      Avg:  19 NOs 
      Min:  19 NOs 
      Max:  19 NOs 
      Avg Occ Number Tol: 1.274e-07 
      Min Occ Number Tol: 4.865e-09 
      Max Occ Number Tol: 3.529e-07 
      Avg Trace Sum: 1.000000 
      Min Trace Sum: 1.000000 
      Max Trace Sum: 1.000000 
  
    Weak pair energy      = 0.000000000000
    PNO truncation energy = 0.000000000000

    Coefficient sparsity in AO -> LMO transform:   0.00 % 
    Coefficient sparsity in AO -> PAO transform:   0.00 % 
    Coefficient sparsity in combined transforms:   0.00 % 

    Storing transformed LMO/LMO, LMO/PAO, and PAO/PAO integrals in sparse format.
    Required memory: 0.000 GiB (0.00 % reduction from dense format) 

  ==> Transforming 3-Index Integrals to LMO/LMO basis <==

  ==> Transforming 3-Index Integrals to PAO/PAO basis <==
    PAO/PAO Integral Memory After Screening: 0.000 [GiB]

  ==> DLPNO-CCSD Memory Estimate <== 

    (q | i j) integrals        : 0.000 [GiB]
    (q | i a) integrals        : 0.000 [GiB]
    (q | a b) integrals        : 0.000 [GiB]
    (m i | n j)                : 0.000 [GiB]
    (i j | k c_{ij})           : 0.000 [GiB]
    (i a_{ij} | j b_{ij})      : 0.000 [GiB]
    (i k | a_{ij} b_{kj})      : 0.000 [GiB]
    (i a_{ij} | b_{ij} c_{ij}) : 0.001 [GiB]
    (Q_{ij}|m_{ij} a_{ij})     : 0.000 [GiB]
    (Q_{ij}|a_{ij} b_{ij})     : 0.002 [GiB]
    PNO/PNO overlaps           : 0.000 [GiB]

    Total Memory Given         : 0.488 [GiB]
    Total Memory Required      : 0.005 [GiB]

    Using high memory PNO overlap algorithm... 

    Storing (Q_{ij}|m_{ij} a_{ij}) integrals in RAM... 

    Storing (Q_{ij}|a_{ij} b_{ij}) integrals in RAM... 

    Computing CC integrals...


  ==> Local CCSD (T1-transformed Hamiltonian) <==

    E_CONVERGENCE = 1.00e-08
    R_CONVERGENCE = 1.00e-08

                      Corr. Energy    Delta E     Max R1     Max R2     Time (s)
  @LCCSD iter   0:  -0.207297782579 -2.073e-01  4.362e-03  2.181e-03        0
  @LCCSD iter   1:  -0.210727261466 -3.429e-03  8.786e-04  7.710e-04        0
  @LCCSD iter   2:  -0.211285709628 -5.584e-04  2.912e-04  2.214e-04        0
  @LCCSD iter   3:  -0.211475884282 -1.902e-04  9.820e-05  7.192e-05        0
  @LCCSD iter   4:  -0.211507936824 -3.205e-05  4.004e-05  1.738e-05        0
  @LCCSD iter   5:  -0.211509205643 -1.269e-06  2.252e-05  6.053e-06        0
  @LCCSD iter   6:  -0.211509909319 -7.037e-07  9.432e-06  2.785e-06        0
  @LCCSD iter   7:  -0.211510773125 -8.638e-07  4.132e-06  9.376e-07        0
  @LCCSD iter   8:  -0.211511351862 -5.787e-07  1.525e-06  3.362e-07        0
  @LCCSD iter   9:  -0.211511550888 -1.990e-07  5.650e-07  1.178e-07        0
  @LCCSD iter  10:  -0.211511676113 -1.252e-07  1.524e-07  5.630e-08        0
  @LCCSD iter  11:  -0.211511706973 -3.086e-08  6.802e-08  2.002e-08        0
  @LCCSD iter  12:  -0.211511721151 -1.418e-08  1.740e-08  8.921e-09        0
  @LCCSD iter  13:  -0.211511726095 -4.944e-09  8.343e-09  3.428e-09        0

  T1 Diagnostic: 0.00592951 
  
  Total DLPNO-CCSD Correlation Energy:  -0.211511726095 
    CCSD Correlation Energy:            -0.211511726095 
    Eliminated Pair MP2 Correction       0.000000000000 
    Weak Pair MP2 Correction:            0.000000000000 
    Weak Pair Dispersion Correction:     0.000000000000 
    Dipole Pair Correction:              0.000000000000 
    PNO Truncation Correction:           0.000000000000 


  @Total DLPNO-CCSD Energy: -76.238144461218 
   --------------------------------------------
                    DLPNO-CCSD(T)              
                    by Andy Jiang              
   --------------------------------------------

  DLPNO convergence set to TIGHT.

  Detailed DLPNO thresholds and cutoffs:
    ALGORITHM    = ITERATIVE (T)   
    STORAGE      = IN CORE   
    T_CUT_TNO (T0)             = 0.000e+00 
    T_CUT_DO_TRIPLES (T0)      = 0.000e+00 
    T_CUT_MKN_TRIPLES (T0)     = 0.000e+00 
    T_CUT_TRIPLES_WEAK (T0)    = 0.000e+00 
    T_CUT_TNO_PRE (T0)         = 0.000e+00 
    T_CUT_DO_TRIPLES_PRE (T0)  = 0.000e+00 
    T_CUT_MKN_TRIPLES_PRE (T0) = 0.000e+00 
    T_CUT_TNO_STRONG (T)       = 0.000e+00 
    T_CUT_TNO_WEAK (T)         = 0.000e+00 
    F_CUT_T (T)                = 0.000e+00 
    T_CUT_ITER (T)             = 0.000e+00 



   Starting Triplet Prescreening...
     T_CUT_TNO set to 0.000e+00 
     T_CUT_DO  set to 0.000e+00 
     T_CUT_MKN set to 0.000e+00 

  
    Number of (Unique) Local MO triplets: 16
    Max Number of Possible (Unique) LMO Triplets: 16 (Ratio: 1.0000)
    Natural Orbitals per Local MO triplet:
      Avg:  19 NOs 
      Min:  19 NOs 
      Max:  19 NOs 
  

   Continuing computation with surviving triplets...
     Eliminated all triples with energy less than 0.000e+00 Eh... 

    * Energy Contribution From Screened Triplets: 0.000000000000 

     T_CUT_TNO (re)set to 0.000e+00 
     T_CUT_DO  (re)set to 0.000e+00 
     T_CUT_MKN (re)set to 0.000e+00 

  
    Number of (Unique) Local MO triplets: 16
    Max Number of Possible (Unique) LMO Triplets: 16 (Ratio: 1.0000)
    Natural Orbitals per Local MO triplet:
      Avg:  19 NOs 
      Min:  19 NOs 
      Max:  19 NOs 
  
    DLPNO-CCSD(T0) Correlation Energy:  -0.214445364619 
    * DLPNO-CCSD Contribution:          -0.211511726095 
    * DLPNO-(T0) Contribution:          -0.002933638524 
    * Screened Triplets Contribution:    0.000000000000 



  ==> Computing Full Iterative (T) <==

  ==> Sorting Triplets <== 

    Number of Strong Triplets:     14, Total Triplets:     16, Ratio: 0.8750

     T_CUT_TNO (re)set to 0.000e+00 for strong triples 
     T_CUT_TNO (re)set to 0.000e+00 for weak triples   

  
    Number of (Unique) Local MO triplets: 16
    Max Number of Possible (Unique) LMO Triplets: 16 (Ratio: 1.0000)
    Natural Orbitals per Local MO triplet:
      Avg:  19 NOs 
      Min:  19 NOs 
      Max:  19 NOs 
  

  ==> DLPNO-(T) Memory Estimate <== 

    (q | i j) integrals    : 0.000 [GiB]
    (q | i a) integrals    : 0.000 [GiB]
    (q | a b) integrals    : 0.000 [GiB]
    W_{ijk}^{abc}          : 0.001 [GiB]
    V_{ijk}^{abc}          : 0.001 [GiB]
    T_{ijk}^{abc}          : 0.001 [GiB]
    Total Memory Given     : 0.488 [GiB]
    Total Memory Required  : 0.003 [GiB]

    Storing all X_{ijk}^{abc} quantities in RAM...


  ==> Local CCSD(T) <==

    E_CONVERGENCE = 1.00e-08
    R_CONVERGENCE = 1.00e-08

                         Corr. Energy    Delta E     Max R     Time (s)
  @LCCSD(T) iter   1:  -0.003039669153 -3.040e-03  2.723e-05        0
  @LCCSD(T) iter   2:  -0.003049683407 -1.001e-05  4.006e-06        0
  @LCCSD(T) iter   3:  -0.003049879156 -1.957e-07  3.952e-07        0
  @LCCSD(T) iter   4:  -0.003049873190  5.966e-09  5.265e-08        0
  @LCCSD(T) iter   5:  -0.003049872884  3.057e-10  3.766e-09        0

    DLPNO-CCSD(T0) energy at looser tolerance:  -0.002933638524
    DLPNO-CCSD(T)  energy at looser tolerance:  -0.003049872884
    * Net Iterative (T) contribution:           -0.000116234360

  
  Total DLPNO-CCSD(T) Correlation Energy:  -0.214561598979 
    DLPNO-CCSD Contribution:               -0.211511726095 
    DLPNO-(T) Contribution:                -0.003049872884 
    Screened Triplets Contribution:         0.000000000000 
    Andy Jiang... FOR THREEEEEEEEEEE!!!


  @Total DLPNO-CCSD(T) Energy: -76.241194334102 
   --------------------------------------------
                    DLPNO-CCSDT                
                   by Andy Jiang               
   --------------------------------------------

  DLPNO convergence set to TIGHT.

  Detailed DLPNO thresholds and cutoffs:
    T_CUT_TNO_STRONG           = 0.000e+00 
    T_CUT_TNO_WEAK             = 0.000e+00 
    T_CUT_DO_TRIPLES           = 0.000e+00 
    T_CUT_MKN_TRIPLES          = 0.000e+00 
    F_CUT_T                    = 0.000e+00 

 ==> DLPNO-CCSDT Memory Estimate <== 

    (i j | l_{ijk} a_{ijk})        : 0.001 [GiB]
    (i a_{ijk} | l_{ijk} b_{ijk})  : 0.008 [GiB]
    (i a_{ijk} | b_{ijk} c_{ijk})  : 0.039 [GiB]
    (Q_{ijk} | l_{ijk} [i,j,k])    : 0.002 [GiB]
    (Q_{ijk} | l_{ijk} a_{ijk})    : 0.037 [GiB]
    (Q_{ijk} | a_{ijk} b_{ijk})    : 0.058 [GiB]
    Total Memory Required          : 0.145 [GiB]


  ==> Local CCSDT <==

    E_CONVERGENCE = 1.00e-08
    R_CONVERGENCE = 1.00e-08

                       Corr. Energy    Delta E     Max R1    Max R2    Max R3    Time (s)
