
    -----------------------------------------------------------------------
          Psi4: An Open-Source Ab Initio Electronic Structure Package
                               Psi4 1.10a1.dev53 

                         Git: Rev {dlpno_ccsd_t_weak_pairs} 6358823 dirty


    D. G. A. Smith, L. A. Burns, A. C. Simmonett, R. M. Parrish,
    M. C. Schieber, R. Galvelis, P. Kraus, H. Kruse, R. Di Remigio,
    A. Alenaizan, A. M. James, S. Lehtola, J. P. Misiewicz, M. Scheurer,
    R. A. Shaw, J. B. Schriber, Y. Xie, Z. L. Glick, D. A. Sirianni,
    J. S. O'Brien, J. M. Waldrop, A. Kumar, E. G. Hohenstein,
    B. P. Pritchard, B. R. Brooks, H. F. Schaefer III, A. Yu. Sokolov,
    K. Patkowski, A. E. DePrince III, U. Bozkaya, R. A. King,
    F. A. Evangelista, J. M. Turney, T. D. Crawford, C. D. Sherrill,
    J. Chem. Phys. 152(18) 184108 (2020). https://doi.org/10.1063/5.0006002

                            Additional Code Authors
    E. T. Seidl, C. L. Janssen, E. F. Valeev, M. L. Leininger,
    J. F. Gonthier, R. M. Richard, H. R. McAlexander, M. Saitow, X. Wang,
    P. Verma, M. H. Lechner, A. Jiang, S. Behnle, A. G. Heide,
    M. F. Herbst, and D. L. Poole

             Previous Authors, Complete List of Code Contributors,
                       and Citations for Specific Modules
    https://github.com/psi4/psi4/blob/master/codemeta.json
    https://github.com/psi4/psi4/graphs/contributors
    http://psicode.org/psi4manual/master/introduction.html#citing-psifour

    -----------------------------------------------------------------------


    Psi4 started on: Monday, 28 October 2024 10:18AM

    Process ID: 1660075
    Host:       b5-23
    PSIDATADIR: /home/aj48384/github/psi4/objdir_p4sums/stage/share/psi4
    Memory:     500.0 MiB
    Threads:    32
    
  ==> Input File <==

--------------------------------------------------------------------------

# PYTHONPATH must include directory above plugin directory.
#     Define either externally or here, then import plugin.
sys.path.insert(0, './..')
import dlpno_ccsdt_q

molecule {
O
H 1 R
H 1 R 2 A

R = .96
A = 104.5
symmetry c1
}

set {
  scf_type df
  mp2_type df
  basis cc-pvdz
  df_basis_mp2 cc-pvdz-ri
  pno_convergence tight
  freeze_core false
  e_convergence 1.0e-6
  r_convergence 1.0e-6
  clear_ccsd_integrals false
}

set dlpno_ccsdt_q {
  print 1
  dlpno_cc3 false
}

energy('cc3')
energy('dlpno_ccsdt_q')

dlpno_ccsdt_q.exampleFN()
--------------------------------------------------------------------------

Scratch directory: /tmp/
   => Libint2 <=

    Primary   basis highest AM E, G, H:  6, 6, 3
    Auxiliary basis highest AM E, G, H:  7, 7, 4
    Onebody   basis highest AM E, G, H:  -, -, -
    Solid Harmonics ordering:            Gaussian

*** tstart() called on b5-23
*** at Mon Oct 28 10:19:00 2024

   => Loading Basis Set <=

    Name: CC-PVDZ
    Role: ORBITAL
    Keyword: BASIS
    atoms 1   entry O          line   198 file /home/aj48384/github/psi4/objdir_p4sums/stage/share/psi4/basis/cc-pvdz.gbs 
    atoms 2-3 entry H          line    22 file /home/aj48384/github/psi4/objdir_p4sums/stage/share/psi4/basis/cc-pvdz.gbs 


         ---------------------------------------------------------
                                   SCF
               by Justin Turney, Rob Parrish, Andy Simmonett
                          and Daniel G. A. Smith
                              RHF Reference
                       32 Threads,    500 MiB Core
         ---------------------------------------------------------

  ==> Geometry <==

    Molecular point group: c1
    Full point group: C2v

    Geometry (in Angstrom), charge = 0, multiplicity = 1:

       Center              X                  Y                   Z               Mass       
    ------------   -----------------  -----------------  -----------------  -----------------
         O            0.000000000000     0.000000000000    -0.065775570547    15.994914619570
         H            0.000000000000    -0.759061990794     0.521953018286     1.007825032230
         H            0.000000000000     0.759061990794     0.521953018286     1.007825032230

  Running in c1 symmetry.

  Rotational constants: A =     27.26297  B =     14.51533  C =      9.47217 [cm^-1]
  Rotational constants: A = 817323.21126  B = 435158.60141  C = 283968.37536 [MHz]
  Nuclear repulsion =    9.168193296424349

  Charge       = 0
  Multiplicity = 1
  Electrons    = 10
  Nalpha       = 5
  Nbeta        = 5

  ==> Algorithm <==

  SCF Algorithm Type is DF.
  DIIS enabled.
  MOM disabled.
  Fractional occupation disabled.
  Guess Type is SAD.
  Energy threshold   = 1.00e-06
  Density threshold  = 1.00e-08
  Integral threshold = 1.00e-12

  ==> Primary Basis <==

  Basis Set: CC-PVDZ
    Blend: CC-PVDZ
    Number of shells: 12
    Number of basis functions: 24
    Number of Cartesian functions: 25
    Spherical Harmonics?: true
    Max angular momentum: 2

   => Loading Basis Set <=

    Name: (CC-PVDZ AUX)
    Role: JKFIT
    Keyword: DF_BASIS_SCF
    atoms 1   entry O          line   221 file /home/aj48384/github/psi4/objdir_p4sums/stage/share/psi4/basis/cc-pvdz-jkfit.gbs 
    atoms 2-3 entry H          line    51 file /home/aj48384/github/psi4/objdir_p4sums/stage/share/psi4/basis/cc-pvdz-jkfit.gbs 

  ==> Integral Setup <==

  DFHelper Memory: AOs need 0.001 GiB; user supplied 0.366 GiB. 
  SCF_SUBTYPE=INCORE selected. In-core MEM_DF algorithm will be used.
  Using in-core AOs.

  ==> MemDFJK: Density-Fitted J/K Matrices <==

    J tasked:                   Yes
    K tasked:                   Yes
    wK tasked:                   No
    OpenMP threads:              32
    Memory [MiB]:               375
    Algorithm:                 Core
    Schwarz Cutoff:           1E-12
    Mask sparsity (%):       0.0000
    Fitting Condition:        1E-10

   => Auxiliary Basis Set <=

  Basis Set: (CC-PVDZ AUX)
    Blend: CC-PVDZ-JKFIT
    Number of shells: 42
    Number of basis functions: 116
    Number of Cartesian functions: 131
    Spherical Harmonics?: true
    Max angular momentum: 3

  Minimum eigenvalue in the overlap matrix is 3.4377086613E-02.
  Reciprocal condition number of the overlap matrix is 9.2817797819E-03.
    Using symmetric orthogonalization.

  ==> Pre-Iterations <==

  SCF Guess: Superposition of Atomic Densities via on-the-fly atomic UHF (no occupation information).

   -------------------------
    Irrep   Nso     Nmo    
   -------------------------
     A         24      24 
   -------------------------
    Total      24      24
   -------------------------

  ==> Iterations <==

                           Total Energy        Delta E     RMS |[F,P]|

   @DF-RHF iter SAD:   -75.50772041125668   -7.55077e+01   0.00000e+00 
   @DF-RHF iter   1:   -75.95376270516431   -4.46042e-01   1.74061e-02 ADIIS/DIIS
   @DF-RHF iter   2:   -76.00706363301620   -5.33009e-02   9.96851e-03 ADIIS/DIIS
   @DF-RHF iter   3:   -76.02615671349383   -1.90931e-02   1.06884e-03 ADIIS/DIIS
   @DF-RHF iter   4:   -76.02661223626171   -4.55523e-04   2.10086e-04 ADIIS/DIIS
   @DF-RHF iter   5:   -76.02663177945176   -1.95432e-05   3.85634e-05 DIIS
   @DF-RHF iter   6:   -76.02663270868027   -9.29229e-07   6.09957e-06 DIIS
   @DF-RHF iter   7:   -76.02663273456491   -2.58846e-08   8.53454e-07 DIIS
   @DF-RHF iter   8:   -76.02663273508931   -5.24395e-10   1.99393e-07 DIIS
   @DF-RHF iter   9:   -76.02663273512249   -3.31823e-11   3.36929e-08 DIIS
   @DF-RHF iter  10:   -76.02663273512340   -9.09495e-13   2.78588e-09 DIIS
  Energy and wave function converged.


  ==> Post-Iterations <==

    Orbital Energies [Eh]
    ---------------------

    Doubly Occupied:                                                      

       1A    -20.550925     2A     -1.335311     3A     -0.697803  
       4A     -0.566087     5A     -0.492948  

    Virtual:                                                              

       6A      0.185107     7A      0.255846     8A      0.787336  
       9A      0.851826    10A      1.163856    11A      1.200424  
      12A      1.253573    13A      1.445291    14A      1.476011  
      15A      1.674661    16A      1.868110    17A      1.932579  
      18A      2.446529    19A      2.483817    20A      3.283958  
      21A      3.336669    22A      3.507634    23A      3.863421  
      24A      4.144760  

    Final Occupation by Irrep:
              A 
    DOCC [     5 ]
    NA   [     5 ]
    NB   [     5 ]

  @DF-RHF Final Energy:   -76.02663273512340

   => Energetics <=

    Nuclear Repulsion Energy =              9.1681932964243487
    One-Electron Energy =                -123.1035071851675156
    Two-Electron Energy =                  37.9086811536197672
    Total Energy =                        -76.0266327351233997

Computation Completed


Properties will be evaluated at   0.000000,   0.000000,   0.000000 [a0]

Properties computed using the SCF density matrix


 Multipole Moments:

 ------------------------------------------------------------------------------------
     Multipole            Electronic (a.u.)      Nuclear  (a.u.)        Total (a.u.)
 ------------------------------------------------------------------------------------

 L = 1.  Multiply by 2.5417464519 to convert [e a0] to [Debye]
 Dipole X            :          0.0000000            0.0000000            0.0000000
 Dipole Y            :          0.0000000            0.0000000            0.0000000
 Dipole Z            :         -0.1680332            0.9783140            0.8102808
 Magnitude           :                                                    0.8102808

 ------------------------------------------------------------------------------------

*** tstop() called on b5-23 at Mon Oct 28 10:19:00 2024
Module time:
	user time   =      12.43 seconds =       0.21 minutes
	system time =       0.62 seconds =       0.01 minutes
	total time  =          0 seconds =       0.00 minutes
Total time:
	user time   =      12.43 seconds =       0.21 minutes
	system time =       0.62 seconds =       0.01 minutes
	total time  =          0 seconds =       0.00 minutes
 MINTS: Wrapper to libmints.
   by Justin Turney

   Calculation information:
      Number of threads:                32
      Number of atoms:                   3
      Number of AO shells:              12
      Number of SO shells:              12
      Number of primitives:             32
      Number of atomic orbitals:        25
      Number of basis functions:        24

      Number of irreps:                  1
      Integral cutoff                 1.00e-12
      Number of functions per irrep: [  24 ]

 OEINTS: Overlap, kinetic, potential, dipole, and quadrupole integrals
         stored in file 35.

      Computing two-electron integrals...done
      Computed 21643 non-zero two-electron integrals.
        Stored in file 33.


*** tstart() called on b5-23
*** at Mon Oct 28 10:19:00 2024


	Wfn Parameters:
	--------------------
	Wavefunction         = CC3
	Number of irreps     = 1
	Number of MOs        = 24
	Number of active MOs = 24
	AO-Basis             = NONE
	Semicanonical        = false
	Reference            = RHF
	Print Level          = 1

	IRREP	# MOs	# FZDC	# DOCC	# SOCC	# VIRT	# FZVR
	-----	-----	------	------	------	------	------
	 A	   24	    0	    5	    0	    19	    0
	Transforming integrals...
	IWL integrals will be deleted.
	(OO|OO)...
	Presorting SO-basis two-electron integrals.
	Sorting File: SO Ints (nn|nn) nbuckets = 1
	Constructing frozen core operators
	Starting first half-transformation.
	Sorting half-transformed integrals.
	First half integral transformation complete.
	Starting second half-transformation.
	Two-electron integral transformation complete.
	(OO|OV)...
	Starting second half-transformation.
	Two-electron integral transformation complete.
	(OO|VV)...
	Starting second half-transformation.
	Two-electron integral transformation complete.
	(OV|OO)...
	Starting first half-transformation.
	Sorting half-transformed integrals.
	First half integral transformation complete.
	Starting second half-transformation.
	Two-electron integral transformation complete.
	(OV|OV)...
	Starting second half-transformation.
	Two-electron integral transformation complete.
	(OV|VV)...
	Starting second half-transformation.
	Two-electron integral transformation complete.
	(VV|OO)...
	Starting first half-transformation.
	Sorting half-transformed integrals.
	First half integral transformation complete.
	Starting second half-transformation.
	Two-electron integral transformation complete.
	(VV|OV)...
	Starting second half-transformation.
	Two-electron integral transformation complete.
	(VV|VV)...
	Starting second half-transformation.
	Two-electron integral transformation complete.
	Frozen core energy     =      0.00000000000000

	Size of irrep 0 of <ab|cd> integrals:      0.130 (MW) /      1.043 (MB)
	Total:                                     0.130 (MW) /      1.043 (MB)

	Size of irrep 0 of <ia|bc> integrals:      0.034 (MW) /      0.274 (MB)
	Total:                                     0.034 (MW) /      0.274 (MB)

	Size of irrep 0 of tijab amplitudes:       0.009 (MW) /      0.072 (MB)
	Total:                                     0.009 (MW) /      0.072 (MB)

	Nuclear Rep. energy          =      9.16819329642435
	SCF energy                   =    -76.02663273512340
	One-electron energy          =   -123.10350712127777
	Two-electron energy          =     37.90866017567291
	Reference energy             =    -76.02665364918052

*** tstop() called on b5-23 at Mon Oct 28 10:19:00 2024
Module time:
	user time   =       5.08 seconds =       0.08 minutes
	system time =       0.11 seconds =       0.00 minutes
	total time  =          0 seconds =       0.00 minutes
Total time:
	user time   =      20.46 seconds =       0.34 minutes
	system time =       0.87 seconds =       0.01 minutes
	total time  =          0 seconds =       0.00 minutes
            **************************
            *                        *
            *        CCENERGY        *
            *                        *
            **************************

    Nuclear Rep. energy (wfn)     =    9.168193296424349
    SCF energy          (wfn)     =  -76.026632735123400
    Reference energy    (file100) =  -76.026653649180517

    Input parameters:
    -----------------
    Wave function   =     CC3
    Reference wfn   =     RHF
    Brueckner       =     No
    Memory (Mbytes) =     524.3
    Maxiter         =     50
    R_Convergence   =     1.0e-06
    E_Convergence   =     1.0e-06
    Restart         =     Yes
    DIIS            =     Yes
    AO Basis        =     NONE
    ABCD            =     NEW
    Cache Level     =     2
    Cache Type      =     LOW
    Print Level     =     1
    Num. of threads =     32
    # Amps to Print =     10
    Print MP2 Amps? =     No
    Analyze T2 Amps =     No
    Print Pair Ener =     No
    Local CC        =     No
    T3 Ws incore    =     No
    SCS-MP2         =     False
    SCSN-MP2        =     False
    SCS-CCSD        =     False

MP2 correlation energy -0.2041399946610199
                Solving CC Amplitude Equations
                ------------------------------
  Iter             Energy              RMS        T1Diag      D1Diag    New D1Diag    D2Diag
  ----     ---------------------    ---------   ----------  ----------  ----------   --------
     0        -0.204139994661020    0.000e+00    0.000000    0.000000    0.000000    0.109712
     1        -0.212081374481482    2.724e-02    0.003538    0.007523    0.007523    0.119139
     2        -0.216366160345259    9.845e-03    0.004636    0.009570    0.009570    0.125189
     3        -0.216575091484723    2.103e-03    0.004987    0.010483    0.010483    0.126182
     4        -0.216601688314117    5.477e-04    0.005045    0.010759    0.010759    0.126378
     5        -0.216606008606736    1.618e-04    0.005071    0.010883    0.010883    0.126391
     6        -0.216603606130417    5.093e-05    0.005078    0.010924    0.010924    0.126382
     7        -0.216603714457066    1.353e-05    0.005081    0.010937    0.010937    0.126381
     8        -0.216603542740287    2.384e-06    0.005082    0.010939    0.010939    0.126380
     9        -0.216603545637726    4.940e-07    0.005082    0.010939    0.010939    0.126380

    Iterations converged.


    Largest TIA Amplitudes:
              3   0         0.0073928664
              2  12         0.0068810105
              2   1        -0.0057124911
              3  13         0.0046717788
              2   6         0.0040620789
              1   4         0.0039322723
              3   3        -0.0036617839
              1   0        -0.0033850969
              4   9        -0.0031886229
              3   7        -0.0030104884

    Largest TIjAb Amplitudes:
      4   4   5   5        -0.0516434567
      2   2   2   2        -0.0370979039
      3   3   4   4        -0.0357828581
      2   2   1   1        -0.0311072554
      2   2   3   3        -0.0292586411
      3   4   4   5         0.0289206292
      4   3   5   4         0.0289206292
      3   3   2   2        -0.0266179422
      2   4   6   5        -0.0230293565
      4   2   5   6        -0.0230293565

    SCF energy       (wfn)                    =  -76.026632735123400
    Reference energy (file100)                =  -76.026653649180517

    Opposite-spin MP2 correlation energy      =   -0.152593413806202
    Same-spin MP2 correlation energy          =   -0.051546580854818
    Singles MP2 correlation energy            =   -0.000000000000000
    MP2 correlation energy                    =   -0.204139994661020
      * MP2 total energy                      =  -76.230793643841537
    CC3 correlation energy                    =   -0.216603545637726
      * CC3 total energy                      =  -76.243257194818241


Scratch directory: /tmp/
   => Libint2 <=

    Primary   basis highest AM E, G, H:  6, 6, 3
    Auxiliary basis highest AM E, G, H:  7, 7, 4
    Onebody   basis highest AM E, G, H:  -, -, -
    Solid Harmonics ordering:            Gaussian

*** tstart() called on b5-23
*** at Mon Oct 28 10:19:02 2024

   => Loading Basis Set <=

    Name: CC-PVDZ
    Role: ORBITAL
    Keyword: BASIS
    atoms 1   entry O          line   198 file /home/aj48384/github/psi4/objdir_p4sums/stage/share/psi4/basis/cc-pvdz.gbs 
    atoms 2-3 entry H          line    22 file /home/aj48384/github/psi4/objdir_p4sums/stage/share/psi4/basis/cc-pvdz.gbs 


         ---------------------------------------------------------
                                   SCF
               by Justin Turney, Rob Parrish, Andy Simmonett
                          and Daniel G. A. Smith
                              RHF Reference
                       32 Threads,    500 MiB Core
         ---------------------------------------------------------

  ==> Geometry <==

    Molecular point group: c1
    Full point group: C2v

    Geometry (in Angstrom), charge = 0, multiplicity = 1:

       Center              X                  Y                   Z               Mass       
    ------------   -----------------  -----------------  -----------------  -----------------
         O            0.000000000000     0.000000000000    -0.065775570547    15.994914619570
         H            0.000000000000    -0.759061990794     0.521953018286     1.007825032230
         H            0.000000000000     0.759061990794     0.521953018286     1.007825032230

  Running in c1 symmetry.

  Rotational constants: A =     27.26297  B =     14.51533  C =      9.47217 [cm^-1]
  Rotational constants: A = 817323.21126  B = 435158.60141  C = 283968.37536 [MHz]
  Nuclear repulsion =    9.168193296424349

  Charge       = 0
  Multiplicity = 1
  Electrons    = 10
  Nalpha       = 5
  Nbeta        = 5

  ==> Algorithm <==

  SCF Algorithm Type is DF.
  DIIS enabled.
  MOM disabled.
  Fractional occupation disabled.
  Guess Type is SAD.
  Energy threshold   = 1.00e-06
  Density threshold  = 1.00e-08
  Integral threshold = 1.00e-12

  ==> Primary Basis <==

  Basis Set: CC-PVDZ
    Blend: CC-PVDZ
    Number of shells: 12
    Number of basis functions: 24
    Number of Cartesian functions: 25
    Spherical Harmonics?: true
    Max angular momentum: 2

   => Loading Basis Set <=

    Name: (CC-PVDZ AUX)
    Role: JKFIT
    Keyword: DF_BASIS_SCF
    atoms 1   entry O          line   221 file /home/aj48384/github/psi4/objdir_p4sums/stage/share/psi4/basis/cc-pvdz-jkfit.gbs 
    atoms 2-3 entry H          line    51 file /home/aj48384/github/psi4/objdir_p4sums/stage/share/psi4/basis/cc-pvdz-jkfit.gbs 

  ==> Integral Setup <==

  DFHelper Memory: AOs need 0.001 GiB; user supplied 0.366 GiB. 
  SCF_SUBTYPE=INCORE selected. In-core MEM_DF algorithm will be used.
  Using in-core AOs.

  ==> MemDFJK: Density-Fitted J/K Matrices <==

    J tasked:                   Yes
    K tasked:                   Yes
    wK tasked:                   No
    OpenMP threads:              32
    Memory [MiB]:               375
    Algorithm:                 Core
    Schwarz Cutoff:           1E-12
    Mask sparsity (%):       0.0000
    Fitting Condition:        1E-10

   => Auxiliary Basis Set <=

  Basis Set: (CC-PVDZ AUX)
    Blend: CC-PVDZ-JKFIT
    Number of shells: 42
    Number of basis functions: 116
    Number of Cartesian functions: 131
    Spherical Harmonics?: true
    Max angular momentum: 3

  Minimum eigenvalue in the overlap matrix is 3.4377086613E-02.
  Reciprocal condition number of the overlap matrix is 9.2817797819E-03.
    Using symmetric orthogonalization.

  ==> Pre-Iterations <==

  SCF Guess: Superposition of Atomic Densities via on-the-fly atomic UHF (no occupation information).

   -------------------------
    Irrep   Nso     Nmo    
   -------------------------
     A         24      24 
   -------------------------
    Total      24      24
   -------------------------

  ==> Iterations <==

                           Total Energy        Delta E     RMS |[F,P]|

   @DF-RHF iter SAD:   -75.50772041125663   -7.55077e+01   0.00000e+00 
   @DF-RHF iter   1:   -75.95376270516427   -4.46042e-01   1.74061e-02 ADIIS/DIIS
   @DF-RHF iter   2:   -76.00706363301622   -5.33009e-02   9.96851e-03 ADIIS/DIIS
   @DF-RHF iter   3:   -76.02615671349375   -1.90931e-02   1.06884e-03 ADIIS/DIIS
   @DF-RHF iter   4:   -76.02661223626168   -4.55523e-04   2.10086e-04 ADIIS/DIIS
   @DF-RHF iter   5:   -76.02663177945180   -1.95432e-05   3.85634e-05 DIIS
   @DF-RHF iter   6:   -76.02663270868031   -9.29229e-07   6.09957e-06 DIIS
   @DF-RHF iter   7:   -76.02663273456491   -2.58846e-08   8.53454e-07 DIIS
   @DF-RHF iter   8:   -76.02663273508938   -5.24466e-10   1.99393e-07 DIIS
   @DF-RHF iter   9:   -76.02663273512236   -3.29834e-11   3.36929e-08 DIIS
   @DF-RHF iter  10:   -76.02663273512334   -9.80549e-13   2.78588e-09 DIIS
  Energy and wave function converged.


  ==> Post-Iterations <==

    Orbital Energies [Eh]
    ---------------------

    Doubly Occupied:                                                      

       1A    -20.550925     2A     -1.335311     3A     -0.697803  
       4A     -0.566087     5A     -0.492948  

    Virtual:                                                              

       6A      0.185107     7A      0.255846     8A      0.787336  
       9A      0.851826    10A      1.163856    11A      1.200424  
      12A      1.253573    13A      1.445291    14A      1.476011  
      15A      1.674661    16A      1.868110    17A      1.932579  
      18A      2.446529    19A      2.483817    20A      3.283958  
      21A      3.336669    22A      3.507634    23A      3.863421  
      24A      4.144760  

    Final Occupation by Irrep:
              A 
    DOCC [     5 ]
    NA   [     5 ]
    NB   [     5 ]

  @DF-RHF Final Energy:   -76.02663273512334

   => Energetics <=

    Nuclear Repulsion Energy =              9.1681932964243487
    One-Electron Energy =                -123.1035071851675156
    Two-Electron Energy =                  37.9086811536198240
    Total Energy =                        -76.0266327351233429

Computation Completed


Properties will be evaluated at   0.000000,   0.000000,   0.000000 [a0]

Properties computed using the SCF density matrix


 Multipole Moments:

 ------------------------------------------------------------------------------------
     Multipole            Electronic (a.u.)      Nuclear  (a.u.)        Total (a.u.)
 ------------------------------------------------------------------------------------

 L = 1.  Multiply by 2.5417464519 to convert [e a0] to [Debye]
 Dipole X            :          0.0000000            0.0000000            0.0000000
 Dipole Y            :          0.0000000            0.0000000            0.0000000
 Dipole Z            :         -0.1680332            0.9783140            0.8102808
 Magnitude           :                                                    0.8102808

 ------------------------------------------------------------------------------------

*** tstop() called on b5-23 at Mon Oct 28 10:19:02 2024
Module time:
	user time   =       6.22 seconds =       0.10 minutes
	system time =       0.21 seconds =       0.00 minutes
	total time  =          0 seconds =       0.00 minutes
Total time:
	user time   =      65.97 seconds =       1.10 minutes
	system time =       2.09 seconds =       0.03 minutes
	total time  =          2 seconds =       0.03 minutes
 MINTS: Wrapper to libmints.
   by Justin Turney

   Calculation information:
      Number of threads:                32
      Number of atoms:                   3
      Number of AO shells:              12
      Number of SO shells:              12
      Number of primitives:             32
      Number of atomic orbitals:        25
      Number of basis functions:        24

      Number of irreps:                  1
      Integral cutoff                 1.00e-12
      Number of functions per irrep: [  24 ]

 OEINTS: Overlap, kinetic, potential, dipole, and quadrupole integrals
         stored in file 35.

      Computing two-electron integrals...done
      Computed 21643 non-zero two-electron integrals.
        Stored in file 33.

   => Loading Basis Set <=

    Name: CC-PVDZ-RI
    Role: RIFIT
    Keyword: DF_BASIS_MP2
    atoms 1   entry O          line   235 file /home/aj48384/github/psi4/objdir_p4sums/stage/share/psi4/basis/cc-pvdz-ri.gbs 
    atoms 2-3 entry H          line    19 file /home/aj48384/github/psi4/objdir_p4sums/stage/share/psi4/basis/cc-pvdz-ri.gbs 


Reading options from the DLPNO_CCSDT_Q block
Calling plugin dlpno_ccsdt_q.so.


Plugins that use gradients: set Da, Db, and Lagrangian for gradient theory on the wavefunction. The old way of passing these will stop working as soon as 1.8.   --------------------------------------------
                    DLPNO-CCSD                 
                   by Andy Jiang               
   --------------------------------------------

  DLPNO convergence set to TIGHT.

  Using CEPA0 algorithm for weak pairs
  Detailed DLPNO thresholds and cutoffs:
    T_CUT_PNO        = 1.0000e-07 
    DIAG_SCALE       = 3.0000e-02 
    T_CUT_TRACE      = 9.9900e-01 
    T_CUT_ENERGY     = 9.9700e-01 
    T_CUT_PAIRS      = 1.0000e-05 
    T_CUT_PRE        = 1.0000e-07 
    T_CUT_DO_PRE     = 3.0000e-02 
    T_CUT_MKN        = 1.0000e-03 
    T_CUT_PNO_MP2    = 1.0000e-09 
    T_CUT_TRACE_MP2  = 9.9990e-01 
    T_CUT_ENERGY_MP2 = 9.9900e-01 
    T_CUT_DO         = 5.0000e-03 
    T_CUT_DO_ij      = 1.0000e-05 
    T_CUT_DO_uv      = 1.0000e-05 
    T_CUT_CLMO       = 1.0000e-03 
    T_CUT_CPAO       = 1.0000e-03 
    S_CUT            = 1.0000e-08 
    F_CUT            = 1.0000e-05 
    INTS_TOL (AO)    = 1.0000e-10 


  ==> Basis Set Information <==

   ----------------------------------------------
      NBF   NFRZC   NACT   NDOCC   NVIR   NAUX   
   ----------------------------------------------
       24      0      5       5      19     84
   ----------------------------------------------

  ==> Boys Localizer <==

    Convergence =   1.000E-12
    Maxiter     =        1000

    Iteration                   Metric       Residual
    @Boys    0   1.9461137449498334E-01              -
    @Boys    1   2.1391633260603928E+00   9.991975E+00
    @Boys    2   2.5671252000387614E+00   2.000604E-01
    @Boys    3   2.5730972294806511E+00   2.326349E-03
    @Boys    4   2.5744157570085728E+00   5.124282E-04
    @Boys    5   2.5745459338196701E+00   5.056557E-05
    @Boys    6   2.5745584333546216E+00   4.855044E-06
    @Boys    7   2.5745601908845877E+00   6.826530E-07
    @Boys    8   2.5745604133326720E+00   8.640236E-08
    @Boys    9   2.5745604554936081E+00   1.637597E-08
    @Boys   10   2.5745604609581210E+00   2.122503E-09
    @Boys   11   2.5745604619548446E+00   3.871432E-10
    @Boys   12   2.5745604621267510E+00   6.677120E-11
    @Boys   13   2.5745604621652634E+00   1.495879E-11
    @Boys   14   2.5745604621692526E+00   1.549489E-12
    @Boys   15   2.5745604621701270E+00   3.396353E-13

    Boys Localizer converged.

  Starting Crude Prescreening...
    T_CUT_MKN set to 1.000e-01
    T_CUT_DO  set to 1.000e-02

  ==> Forming Local MO Domains <==

    Auxiliary BFs per Local MO:
      Average =   61 AUX BFs (1 atoms)
      Min     =   56 AUX BFs (1 atoms)
      Max     =   70 AUX BFs (2 atoms)
  
    Projected AOs per Local MO:
      Average =   24 PAOs (3 atoms)
      Min     =   24 PAOs (3 atoms)
      Max     =   24 PAOs (3 atoms)

    Local MOs per Local MO:
      Average =    5 LMOs
      Min     =    5 LMOs
      Max     =    5 LMOs
 
    Screened 0 of 25 LMO pairs (0.00 %)
             0 pairs met overlap criteria
             5 pairs met energy criteria
 
    Screened LMO pair energy =  0.000000000000 

  ==> Merging LMO Domains into LMO Pair Domains <==
  
    Auxiliary BFs per Local MO pair:
      Average =   66 AUX BFs (1 atoms)
      Min     =   56 AUX BFs (1 atoms)
      Max     =   84 AUX BFs (3 atoms)
  
    Local MOs per Local MO pair:
      Average =    5 LMOs
      Min     =    5 LMOs
      Max     =    5 LMOs
  
    Projected AOs per Local MO pair:
      Average =   24 PAOs (3 atoms)
      Min     =   24 PAOs (3 atoms)
      Max     =   24 PAOs (3 atoms)

  ==> Transforming 3-Index Integrals to LMO/PAO basis <==

  ==> Determining Strong and Weak Pairs (Crude Prescreening Step) <==

  ==> Computing SC-LMP2 Pair Energies <==

    Starting semicanonical (non-iterative) LMP2 step...

    PAO-SC-LMP2 Energy:  -0.194977278310

    Eliminated Pairs                = 0
    (Initial) Weak Pairs            = 0
    (Initial) Strong Pairs          = 25
    Surviving Pairs / Total Pairs   = (100.00 %)
    Eliminated Pair dE              = 0.000000000000

  Starting Refined Prescreening...
    T_CUT_MKN reset to 1.000e-03
    T_CUT_DO  reset to 5.000e-03

  ==> Forming Local MO Domains <==

    Auxiliary BFs per Local MO:
      Average =   78 AUX BFs (2 atoms)
      Min     =   56 AUX BFs (1 atoms)
      Max     =   84 AUX BFs (3 atoms)
  
    Projected AOs per Local MO:
      Average =   24 PAOs (3 atoms)
      Min     =   24 PAOs (3 atoms)
      Max     =   24 PAOs (3 atoms)

    Local MOs per Local MO:
      Average =    5 LMOs
      Min     =    5 LMOs
      Max     =    5 LMOs
 

  ==> Merging LMO Domains into LMO Pair Domains <==
  
    Auxiliary BFs per Local MO pair:
      Average =   82 AUX BFs (2 atoms)
      Min     =   56 AUX BFs (1 atoms)
      Max     =   84 AUX BFs (3 atoms)
  
    Local MOs per Local MO pair:
      Average =    5 LMOs
      Min     =    5 LMOs
      Max     =    5 LMOs
  
    Projected AOs per Local MO pair:
      Average =   24 PAOs (3 atoms)
      Min     =   24 PAOs (3 atoms)
      Max     =   24 PAOs (3 atoms)

  ==> Transforming 3-Index Integrals to LMO/PAO basis <==

  ==> Determining Strong and Weak Pairs (Refined Prescreening Step) <==


  ==> Computing SC-LMP2 Pair Energies <==

    Starting semicanonical (non-iterative) LMP2 step...


  ==> Forming Pair Natural Orbitals (for LMP2) <==
    PAO-SC-LMP2 Energy:  -0.195022735181

  
    Natural Orbitals per Local MO pair:
      Avg:  16 NOs 
      Min:  10 NOs 
      Max:  19 NOs 
      Avg Occ Number Tol: 5.725e-08 
      Min Occ Number Tol: 3.622e-11 
      Max Occ Number Tol: 2.502e-07 
      Avg Trace Sum: 0.999972 
      Min Trace Sum: 0.999901 
      Max Trace Sum: 1.000000 
  
    PNO truncation energy = -0.000000288080
    (Additional) Eliminated Pairs   = 0
    (Final) Weak Pairs              = 0
    (Final) Strong Pairs            = 25
    Strong Pairs / Total Pairs      = (100.00 %)
    (Cumulative) Eliminated Pair dE = 0.000000000000
    (Initial) Weak Pair dE          = 0.000000000000


    Auxiliary BFs per Local MO:
      Average =   78 AUX BFs (2 atoms)
      Min     =   56 AUX BFs (1 atoms)
      Max     =   84 AUX BFs (3 atoms)
  
    Projected AOs per Local MO:
      Average =   24 PAOs (3 atoms)
      Min     =   24 PAOs (3 atoms)
      Max     =   24 PAOs (3 atoms)

    Local MOs per Local MO:
      Average =    5 LMOs
      Min     =    5 LMOs
      Max     =    5 LMOs
 

  ==> Merging LMO Domains into LMO Pair Domains <==
  
    Auxiliary BFs per Local MO pair:
      Average =   82 AUX BFs (2 atoms)
      Min     =   56 AUX BFs (1 atoms)
      Max     =   84 AUX BFs (3 atoms)
  
    Local MOs per Local MO pair:
      Average =    5 LMOs
      Min     =    5 LMOs
      Max     =    5 LMOs
  
    Projected AOs per Local MO pair:
      Average =   24 PAOs (3 atoms)
      Min     =   24 PAOs (3 atoms)
      Max     =   24 PAOs (3 atoms)
  ==> PNO-LMP2 Memory Estimate <== 

    PNO/PNO overlaps       : 0.000 [GiB]
    Total Memory Given     : 0.488 [GiB]


  ==> Iterative Local MP2 with Pair Natural Orbitals (PNOs) <==

    E_CONVERGENCE = 1.00e-08
    R_CONVERGENCE = 1.00e-08

                         Corr. Energy    Delta E     Max R     Time (s)
  @PNO-LMP2 iter   0:  -0.199871264004 -1.999e-01  5.955e-03        0
  @PNO-LMP2 iter   1:  -0.203707186170 -3.836e-03  1.186e-03        0
  @PNO-LMP2 iter   2:  -0.203975574951 -2.684e-04  3.466e-04        0
  @PNO-LMP2 iter   3:  -0.204037243141 -6.167e-05  5.668e-05        0
  @PNO-LMP2 iter   4:  -0.204037186304  5.684e-08  7.570e-06        0
  @PNO-LMP2 iter   5:  -0.204036699993  4.863e-07  1.520e-06        0
  @PNO-LMP2 iter   6:  -0.204036496331  2.037e-07  2.989e-07        0
  @PNO-LMP2 iter   7:  -0.204036444447  5.188e-08  9.262e-08        0
  @PNO-LMP2 iter   8:  -0.204036438514  5.934e-09  1.624e-08        0
  @PNO-LMP2 iter   9:  -0.204036439227 -7.131e-10  2.441e-09        0
  
  Total DLPNO-MP2 Correlation Energy:  -0.204036727306 
    MP2 Correlation Energy:            -0.204036439227 
    Eliminated Pair MP2 Correction:     0.000000000000 
    Dipole Correction:                  0.000000000000 
    PNO Truncation Correction:         -0.000000288080 


  ==> Forming Pair Natural Orbitals (for LCCSD) <==
  
    Natural Orbitals per Local MO pair:
      Avg:  16 NOs 
      Min:   8 NOs 
      Max:  19 NOs 
      Avg Occ Number Tol: 1.069e-07 
      Min Occ Number Tol: 3.025e-09 
      Max Occ Number Tol: 3.550e-07 
      Avg Trace Sum: 0.999766 
      Min Trace Sum: 0.999059 
      Max Trace Sum: 1.000000 
  
    LMP2 Weak pair energy = 0.000000000000
    PNO truncation energy = -0.000001096646

    Coefficient sparsity in AO -> LMO transform:   0.00 % 
    Coefficient sparsity in AO -> PAO transform:   0.00 % 
    Coefficient sparsity in combined transforms:   0.00 % 

    Storing transformed LMO/LMO, LMO/PAO, and PAO/PAO integrals in sparse format.
    Required memory: 0.000 GiB (0.00 % reduction from dense format) 

  ==> Transforming 3-Index Integrals to LMO/LMO basis <==

  ==> Transforming 3-Index Integrals to PAO/PAO basis <==
    PAO/PAO Integral Memory After Screening: 0.000 [GiB]

  ==> DLPNO-CCSD Memory Requirements <== 

    (q | i j) integrals        : 0.000 [GiB]
    (q | i a) integrals        : 0.000 [GiB]
    (q | a b) integrals        : 0.000 [GiB]
    (m i | n j)                : 0.000 [GiB]
    (i j | k c_{ij})           : 0.000 [GiB]
    (i a_{ij} | j b_{ij})      : 0.000 [GiB]
    (i k | a_{ij} b_{kj})      : 0.001 [GiB]
    (i a_{ij} | b_{ij} c_{ij}) : 0.001 [GiB]
    (Q_{ij}|m_{ij} a_{ij})     : 0.001 [GiB]
    (Q_{ij}|a_{ij} b_{ij})     : 0.003 [GiB]
    PNO/PNO overlaps           : 0.000 [GiB]

    Total Memory Given         : 0.488 [GiB]
    Total Memory Required      : 0.006 [GiB]

    Using high memory PNO overlap algorithm... 

    Storing (Q_{ij}|m_{ij} a_{ij}) integrals in RAM... 

    Storing (Q_{ij}|a_{ij} b_{ij}) integrals in RAM... 

    Computing CC integrals...

    Integral Computation Complete!!! Time Elapsed:    0 seconds


  ==> Local CCSD (T1-transformed Hamiltonian) <==

    E_CONVERGENCE = 1.00e-06
    R_CONVERGENCE = 1.00e-06

                      Corr. Energy    Delta E     Max R1     Max R2     Time (s)
  @LCCSD iter   0:  -0.209481451101 -2.095e-01  4.352e-03  2.182e-03        0
  @LCCSD iter   1:  -0.212225223516 -2.744e-03  1.760e-03  8.096e-04        0
  @LCCSD iter   2:  -0.213197355305 -9.721e-04  3.577e-04  2.837e-04        0
  @LCCSD iter   3:  -0.213426661141 -2.293e-04  2.211e-04  8.289e-05        0
  @LCCSD iter   4:  -0.213477074827 -5.041e-05  9.858e-05  2.719e-05        0
  @LCCSD iter   5:  -0.213488606945 -1.153e-05  3.189e-05  1.093e-05        0
  @LCCSD iter   6:  -0.213489688528 -1.082e-06  2.997e-05  3.293e-06        0
  @LCCSD iter   7:  -0.213490211890 -5.234e-07  8.849e-06  1.357e-06        0
  @LCCSD iter   8:  -0.213490838000 -6.261e-07  4.944e-06  5.549e-07        0
  @LCCSD iter   9:  -0.213491082825 -2.448e-07  1.011e-06  1.691e-07        0
  @LCCSD iter  10:  -0.213491183871 -1.010e-07  4.629e-07  6.659e-08        0

  T1 Diagnostic: 0.00527515 
  
  Total DLPNO-CCSD Correlation Energy:  -0.213492280517 
    CCSD Correlation Energy:            -0.213491183871 
    Weak Pair Contribution:              0.000000000000 
    Eliminated Pair MP2 Correction:      0.000000000000 
    Dipole Pair Correction:              0.000000000000 
    PNO Truncation Correction:          -0.000001096646 


  @Total DLPNO-CCSD Energy: -76.240125015640 
   --------------------------------------------
                    DLPNO-CCSD(T)              
                    by Andy Jiang              
   --------------------------------------------

  DLPNO convergence set to TIGHT.

  Detailed DLPNO thresholds and cutoffs:
    ALGORITHM    = ITERATIVE (T)   
    STORAGE      = IN CORE   
    T_CUT_TNO (T0)             = 1.000e-09 
    T_CUT_DO_TRIPLES (T0)      = 1.000e-02 
    T_CUT_MKN_TRIPLES (T0)     = 1.000e-02 
    T_CUT_TRIPLES_WEAK (T0)    = 1.000e-07 
    T_CUT_TNO_PRE (T0)         = 1.000e-07 
    T_CUT_DO_TRIPLES_PRE (T0)  = 2.000e-02 
    T_CUT_MKN_TRIPLES_PRE (T0) = 1.000e-01 
    TRIPLES_MAX_WEAK_PAIRS     =      2   
    T_CUT_TNO_STRONG (T)       = 1.000e-08 
    T_CUT_TNO_WEAK (T)         = 1.000e-07 
    F_CUT_T (T)                = 1.000e-03 
    T_CUT_ITER (T)             = 1.000e-03 



   Starting Triplet Prescreening...
     T_CUT_TNO set to 1.000e-07 
     T_CUT_DO  set to 2.000e-02 
     T_CUT_MKN set to 1.000e-01 

  
    Number of (Unique) Local MO triplets: 30
    Max Number of Possible (Unique) LMO Triplets: 30 (Ratio: 1.0000)
    Natural Orbitals per Local MO triplet:
      Avg:  17 NOs 
      Min:   9 NOs 
      Max:  19 NOs 
  
    (Relavent) Semicanonical LCCSD(T0) Computation Complete!!! Time Elapsed:    0 seconds


   Continuing computation with surviving triplets...
     Eliminated all triples with energy less than 1.000e-07 Eh... 

    * Energy Contribution From Screened Triplets: 0.000000000000 

     T_CUT_TNO (re)set to 1.000e-09 
     T_CUT_DO  (re)set to 1.000e-02 
     T_CUT_MKN (re)set to 1.000e-02 

  
    Number of (Unique) Local MO triplets: 30
    Max Number of Possible (Unique) LMO Triplets: 30 (Ratio: 1.0000)
    Natural Orbitals per Local MO triplet:
      Avg:  18 NOs 
      Min:  12 NOs 
      Max:  19 NOs 
  
    (Relavent) Semicanonical LCCSD(T0) Computation Complete!!! Time Elapsed:    0 seconds

    DLPNO-CCSD(T0) Correlation Energy:  -0.216405307844 
    * DLPNO-CCSD Contribution:          -0.213491183871 
    * DLPNO-(T0) Contribution:          -0.002914123973 
    * Screened Triplets Contribution:    0.000000000000 



  ==> Computing Full Iterative (T) <==

  ==> Sorting Triplets <== 

    Number of Strong Triplets:     14, Total Triplets:     30, Ratio: 0.4667

     T_CUT_TNO (re)set to 1.000e-08 for strong triples 
     T_CUT_TNO (re)set to 1.000e-07 for weak triples   

  
    Number of (Unique) Local MO triplets: 30
    Max Number of Possible (Unique) LMO Triplets: 30 (Ratio: 1.0000)
    Natural Orbitals per Local MO triplet:
      Avg:  17 NOs 
      Min:   9 NOs 
      Max:  19 NOs 
  

  ==> DLPNO-(T) Memory Requirements <== 

    (q | i j) integrals    : 0.000 [GiB]
    (q | i a) integrals    : 0.000 [GiB]
    (q | a b) integrals    : 0.000 [GiB]
    W_{ijk}^{abc}          : 0.001 [GiB]
    V_{ijk}^{abc}          : 0.001 [GiB]
    T_{ijk}^{abc}          : 0.001 [GiB]
    Total Memory Given     : 0.488 [GiB]
    Total Memory Required  : 0.004 [GiB]

    Storing all X_{ijk}^{abc} quantities in RAM...

    (Relavent) Semicanonical LCCSD(T0) Computation Complete!!! Time Elapsed:    0 seconds


  ==> Local CCSD(T) <==

    E_CONVERGENCE = 1.00e-06
    R_CONVERGENCE = 1.00e-06

                         Corr. Energy    Delta E     Max R     Time (s)
  @LCCSD(T) iter   1:  -0.003023115185 -3.023e-03  9.690e-05        0
  @LCCSD(T) iter   2:  -0.003064464738 -4.135e-05  2.112e-05        0
  @LCCSD(T) iter   3:  -0.003063150449  1.314e-06  5.702e-06        0
  @LCCSD(T) iter   4:  -0.003063816660 -6.662e-07  2.370e-06        0
  @LCCSD(T) iter   5:  -0.003063783168  3.349e-08  9.726e-07        0

    DLPNO-CCSD(T0) energy at looser tolerance:  -0.002911103048
    DLPNO-CCSD(T)  energy at looser tolerance:  -0.003063783168
    * Net Iterative (T) contribution:           -0.000152680120

  
  Total DLPNO-CCSD(T) Correlation Energy:  -0.216559084610 
    DLPNO-CCSD Contribution:               -0.213492280517 
    DLPNO-(T) Contribution:                -0.003066804093 
    Screened Triplets Contribution:         0.000000000000 
    Andy Jiang... FOR THREEEEEEEEEEE!!!


  @Total DLPNO-CCSD(T) Energy: -76.243191819734 
   --------------------------------------------
                    DLPNO-CCSDT                
                   by Andy Jiang               
   --------------------------------------------

  DLPNO convergence set to TIGHT.

  Detailed DLPNO thresholds and cutoffs:
    T_CUT_TNO_STRONG           = 1.000e-08 
    T_CUT_TNO_WEAK             = 1.000e-07 
    T_CUT_DO_TRIPLES           = 1.000e-02 
    T_CUT_MKN_TRIPLES          = 1.000e-02 
    F_CUT_T                    = 1.000e-03 

 ==> DLPNO-CCSDT Memory Estimate <== 

    (i j | l_{ijk} a_{ijk})        : 0.003 [GiB]
    (i a_{ijk} | l_{ijk} b_{ijk})  : 0.030 [GiB]
    (i a_{ijk} | b_{ijk} c_{ijk})  : 0.110 [GiB]
    (Q_{ijk} | l_{ijk} [i,j,k])    : 0.007 [GiB]
    (Q_{ijk} | l_{ijk} a_{ijk})    : 0.120 [GiB]
    (Q_{ijk} | a_{ijk} b_{ijk})    : 0.143 [GiB]
    Total Memory Required          : 0.413 [GiB]


  ==> Local CCSDT <==

    E_CONVERGENCE = 1.00e-06
    R_CONVERGENCE = 1.00e-06

                       Corr. Energy    Delta E     Max R1     Max R2     Max R3     Time (s)
  @LCCSDT iter   1:  -0.216293654209 -2.163e-01  4.418e-04  2.933e-04  5.647e-05        0
  @LCCSDT iter   2:  -0.216441911671 -1.483e-04  2.155e-04  8.604e-05  2.314e-05        1
  @LCCSDT iter   3:  -0.216638475661 -1.966e-04  9.024e-05  3.739e-05  1.027e-05        0
  @LCCSDT iter   4:  -0.216666185673 -2.771e-05  6.500e-05  1.926e-05  5.449e-06        0
  @LCCSDT iter   5:  -0.216702568993 -3.638e-05  2.154e-05  1.103e-05  2.738e-06        1
  @LCCSDT iter   6:  -0.216706316649 -3.748e-06  2.165e-05  6.197e-06  1.807e-06        0
  @LCCSDT iter   7:  -0.216716152423 -9.836e-06  6.413e-06  5.271e-06  9.790e-07        0
  @LCCSDT iter   8:  -0.216715893825  2.586e-07  8.898e-06  3.134e-06  7.126e-07        1
  @LCCSDT iter   9:  -0.216719417029 -3.523e-06  3.006e-06  2.936e-06  4.426e-07        0
  @LCCSDT iter  10:  -0.216718681240  7.358e-07  4.067e-06  1.867e-06  3.700e-07        0
  @LCCSDT iter  11:  -0.216720241671 -1.560e-06  1.502e-06  1.771e-06  2.609e-07        1
  @LCCSDT iter  12:  -0.216719629766  6.119e-07  1.997e-06  1.234e-06  2.307e-07        0
  @LCCSDT iter  13:  -0.216720432354 -8.026e-07  7.977e-07  1.110e-06  1.819e-07        0
  @LCCSDT iter  14:  -0.216719999632  4.327e-07  1.046e-06  8.210e-07  1.530e-07        0
  @LCCSDT iter  15:  -0.216720454372 -4.547e-07  4.489e-07  7.094e-07  1.277e-07        1
  
  Total DLPNO-CCSDT Correlation Energy:  -0.216724571943 
    LCCSDT Correlation Energy:           -0.216720454372 
    Full (T) - Iterative (T) Diff:       -0.000003020925 
    Net non-strong pair contributions:   -0.000001096646 
    Andy Jiang... FOR THREEEEEEEEEEE!!!


  @Total DLPNO-CCSDT Energy: -76.243357307067 

    Psi4 stopped on: Monday, 28 October 2024 10:19AM
    Psi4 wall time for execution: 0:00:07.35

*** Psi4 exiting successfully. Buy a developer a beer!
