
Host: b6-10

Timers On : Tue Aug 13 22:39:23 2024
Timers Off: Tue Aug 13 22:39:24 2024

Wall Time:        1.66 seconds

                                                       Time (seconds)
Module                                       User      System        Wall        Calls
DFH: sparsity prep                  :      0.000u      0.017s      0.005w      1 calls
Libint2ERI::Libint2ERI              :      0.033u      0.017s      0.016w      9 calls
DFH: initialize()                   :      0.017u      0.000s      0.009w      1 calls
DFH: AO Construction                :      0.017u      0.000s      0.002w      1 calls
DFH: AO-Met. Contraction            :      0.000u      0.000s      0.001w      1 calls
HF: Form core H                     :      0.000u      0.000s      0.001w      1 calls
HF: Form S/X                        :      0.000u      0.000s      0.000w      1 calls
HF: Guess                           :      0.017u      0.000s      0.016w      1 calls
SAD Guess                           :      0.017u      0.000s      0.015w      1 calls
HF: Form G                          :      0.000u      0.000s      0.002w     11 calls
JK: D                               :      0.000u      0.000s      0.000w     11 calls
JK: USO2AO                          :      0.000u      0.000s      0.000w     11 calls
JK: JK                              :      0.000u      0.000s      0.002w     11 calls
DFH: compute_JK()                   :      0.000u      0.000s      0.002w     11 calls
DFH: Grabbing AOs                   :      0.000u      0.000s      0.000w     11 calls
DFH: compute_J                      :      0.000u      0.000s      0.000w     11 calls
DFH: compute_K                      :      0.000u      0.000s      0.001w     11 calls
JK: AO2USO                          :      0.000u      0.000s      0.000w     11 calls
HF: Form F                          :      0.000u      0.000s      0.000w     11 calls
HF: Form D                          :      0.000u      0.000s      0.000w     11 calls
HF: DIIS                            :      0.200u      0.050s      0.208w     10 calls
HF: Form C                          :      0.000u      0.000s      0.002w     10 calls
DLPNO-CCSD(T)                       :      1.000u      0.000s      0.601w      1 calls
DLPNO-CCSD                          :      0.650u      0.000s      0.391w      1 calls
Setup Orbitals                      :      0.017u      0.000s      0.001w      1 calls
Local MOs                           :      0.017u      0.000s      0.001w      1 calls
Projected AOs                       :      0.000u      0.000s      0.000w      1 calls
Overlap Ints                        :      0.000u      0.000s      0.003w      1 calls
Construct Grid                      :      0.000u      0.000s      0.001w      1 calls
build grid                          :      0.000u      0.000s      0.001w      1 calls
post-process grid                   :      0.000u      0.000s      0.000w      1 calls
Integration                         :      0.000u      0.000s      0.002w      1 calls
Dipole Ints                         :      0.000u      0.000s      0.001w      1 calls
Compute Metric                      :      0.000u      0.000s      0.001w      1 calls
(K|L)                               :      0.000u      0.000s      0.001w      1 calls
Sparsity                            :      0.000u      0.000s      0.000w      3 calls
Crude DF Ints                       :      0.017u      0.000s      0.005w      1 calls
(mn|K) -> (ia|K)                    :      0.017u      0.000s      0.009w      2 calls
Crude Pair Prescreening             :      0.000u      0.000s      0.002w      1 calls
Refined DF Ints                     :      0.000u      0.000s      0.004w      1 calls
Refined Pair Prescreening           :      0.000u      0.000s      0.003w      1 calls
PNO-LMP2 Iterations                 :      0.017u      0.000s      0.009w      1 calls
DF Ints                             :      0.017u      0.000s      0.008w      1 calls
(mn|K)->(ij|K)                      :      0.017u      0.000s      0.004w      1 calls
(mn|K)->(ab|K)                      :      0.000u      0.000s      0.004w      1 calls
CC Integrals                        :      0.083u      0.000s      0.051w      1 calls
DLPNO-CCSD: Setup Integrals         :      0.050u      0.000s      0.024w     10 calls
DLPNO-CCSD: J_ij_kj Integrals       :      0.033u      0.000s      0.020w     10 calls
DLPNO-CCSD: K_ij_kj Integrals       :      0.000u      0.000s      0.005w     10 calls
DLPNO-CCSD: Contract Integrals      :      0.000u      0.000s      0.001w     10 calls
PNO Overlaps                        :      0.000u      0.000s      0.001w      1 calls
LCCSD                               :      0.500u      0.000s      0.301w      1 calls
DLPNO-CCSD: T1 Ints                 :      0.050u      0.000s      0.034w     14 calls
DLPNO-CCSD: T1 Fock                 :      0.100u      0.000s      0.064w     14 calls
DLPNO-CCSD: Compute R1              :      0.067u      0.000s      0.036w     64 calls
DLPNO-CCSD: Compute R2              :      0.333u      0.000s      0.191w     14 calls
DLPNO-CCSD: beta                    :      0.067u      0.000s      0.034w     14 calls
DLPNO-CCSD: gamma                   :      0.000u      0.000s      0.012w     14 calls
DLPNO-CCSD: delta                   :      0.033u      0.000s      0.014w     14 calls
DLPNO-CCSD: Fkj double tilde        :      0.017u      0.000s      0.004w     14 calls
Triples Sparsity                    :      0.000u      0.000s      0.000w      2 calls
TNO transform                       :      0.017u      0.000s      0.009w      3 calls
LCCSD(T0)                           :      0.250u      0.000s      0.145w      3 calls
LCCSD(T0): Setup Integrals          :      0.067u      0.000s      0.047w     48 calls
LCCSD(T0): Contract Integrals       :      0.133u      0.000s      0.067w     48 calls
LCCSD(T0): Form W                   :      0.000u      0.000s      0.021w     48 calls
LCCSD(T0): Form V                   :      0.000u      0.000s      0.001w     48 calls
Sort Triplets                       :      0.000u      0.000s      0.000w      1 calls
LCCSD(T) Iterations                 :      0.083u      0.000s      0.056w      1 calls
Compute (T) Energy                  :      0.000u      0.000s      0.004w      4 calls

--------------------------------------------------------------------------------------
DFH: sparsity prep                  :      0.000u      0.017s      0.005w      1 calls
| Libint2ERI::Libint2ERI            :      0.000u      0.017s      0.004w      1 calls
DFH: initialize()                   :      0.017u      0.000s      0.009w      1 calls
| Libint2ERI::Libint2ERI            :      0.000u      0.000s      0.002w      2 calls
| DFH: AO Construction              :      0.017u      0.000s      0.002w      1 calls
| DFH: AO-Met. Contraction          :      0.000u      0.000s      0.001w      1 calls
HF: Form core H                     :      0.000u      0.000s      0.001w      1 calls
HF: Form S/X                        :      0.000u      0.000s      0.000w      1 calls
HF: Guess                           :      0.017u      0.000s      0.016w      1 calls
| SAD Guess                         :      0.017u      0.000s      0.015w      1 calls
HF: Form G                          :      0.000u      0.000s      0.002w     11 calls
| JK: D                             :      0.000u      0.000s      0.000w     11 calls
| JK: USO2AO                        :      0.000u      0.000s      0.000w     11 calls
| JK: JK                            :      0.000u      0.000s      0.002w     11 calls
| | DFH: compute_JK()               :      0.000u      0.000s      0.002w     11 calls
| | | DFH: Grabbing AOs             :      0.000u      0.000s      0.000w     11 calls
| | | DFH: compute_J                :      0.000u      0.000s      0.000w     11 calls
| | | DFH: compute_K                :      0.000u      0.000s      0.001w     11 calls
| JK: AO2USO                        :      0.000u      0.000s      0.000w     11 calls
HF: Form F                          :      0.000u      0.000s      0.000w     11 calls
HF: Form D                          :      0.000u      0.000s      0.000w     11 calls
HF: DIIS                            :      0.200u      0.050s      0.208w     10 calls
HF: Form C                          :      0.000u      0.000s      0.002w     10 calls
Libint2ERI::Libint2ERI              :      0.017u      0.000s      0.003w      1 calls
DLPNO-CCSD(T)                       :      1.000u      0.000s      0.601w      1 calls
| DLPNO-CCSD                        :      0.650u      0.000s      0.391w      1 calls
| | Setup Orbitals                  :      0.017u      0.000s      0.001w      1 calls
| | | Local MOs                     :      0.017u      0.000s      0.001w      1 calls
| | | Projected AOs                 :      0.000u      0.000s      0.000w      1 calls
| | Overlap Ints                    :      0.000u      0.000s      0.003w      1 calls
| | | Construct Grid                :      0.000u      0.000s      0.001w      1 calls
| | | | build grid                  :      0.000u      0.000s      0.001w      1 calls
| | | | post-process grid           :      0.000u      0.000s      0.000w      1 calls
| | | Integration                   :      0.000u      0.000s      0.002w      1 calls
| | Dipole Ints                     :      0.000u      0.000s      0.001w      1 calls
| | Compute Metric                  :      0.000u      0.000s      0.001w      1 calls
| | | (K|L)                         :      0.000u      0.000s      0.001w      1 calls
| | | | Libint2ERI::Libint2ERI      :      0.000u      0.000s      0.000w      1 calls
| | Sparsity                        :      0.000u      0.000s      0.000w      3 calls
| | Crude DF Ints                   :      0.017u      0.000s      0.005w      1 calls
| | | (mn|K) -> (ia|K)              :      0.017u      0.000s      0.005w      1 calls
| | | | Libint2ERI::Libint2ERI      :      0.000u      0.000s      0.002w      1 calls
| | Crude Pair Prescreening         :      0.000u      0.000s      0.002w      1 calls
| | Refined DF Ints                 :      0.000u      0.000s      0.004w      1 calls
| | | (mn|K) -> (ia|K)              :      0.000u      0.000s      0.004w      1 calls
| | | | Libint2ERI::Libint2ERI      :      0.000u      0.000s      0.002w      1 calls
| | Refined Pair Prescreening       :      0.000u      0.000s      0.003w      1 calls
| | PNO-LMP2 Iterations             :      0.017u      0.000s      0.009w      1 calls
| | DF Ints                         :      0.017u      0.000s      0.008w      1 calls
| | | (mn|K)->(ij|K)                :      0.017u      0.000s      0.004w      1 calls
| | | | Libint2ERI::Libint2ERI      :      0.017u      0.000s      0.001w      1 calls
| | | (mn|K)->(ab|K)                :      0.000u      0.000s      0.004w      1 calls
| | | | Libint2ERI::Libint2ERI      :      0.000u      0.000s      0.001w      1 calls
| | CC Integrals                    :      0.083u      0.000s      0.051w      1 calls
| | | DLPNO-CCSD: Setup Integrals   :      0.050u      0.000s      0.024w     10 calls
| | | DLPNO-CCSD: J_ij_kj Integrals :      0.033u      0.000s      0.020w     10 calls
| | | DLPNO-CCSD: K_ij_kj Integrals :      0.000u      0.000s      0.005w     10 calls
| | | DLPNO-CCSD: Contract Integrals:      0.000u      0.000s      0.001w     10 calls
| | PNO Overlaps                    :      0.000u      0.000s      0.001w      1 calls
| | LCCSD                           :      0.500u      0.000s      0.301w      1 calls
| | | DLPNO-CCSD: T1 Ints           :      0.050u      0.000s      0.034w     14 calls
| | | DLPNO-CCSD: T1 Fock           :      0.100u      0.000s      0.064w     14 calls
| | | DLPNO-CCSD: Compute R1        :      0.017u      0.000s      0.007w     14 calls
| | | DLPNO-CCSD: Compute R2        :      0.333u      0.000s      0.191w     14 calls
| | | | DLPNO-CCSD: beta            :      0.067u      0.000s      0.034w     14 calls
| | | | DLPNO-CCSD: gamma           :      0.000u      0.000s      0.012w     14 calls
| | | | DLPNO-CCSD: delta           :      0.033u      0.000s      0.014w     14 calls
| | | | DLPNO-CCSD: Fkj double tilde:      0.017u      0.000s      0.004w     14 calls
| Triples Sparsity                  :      0.000u      0.000s      0.000w      2 calls
| TNO transform                     :      0.017u      0.000s      0.009w      3 calls
| LCCSD(T0)                         :      0.250u      0.000s      0.145w      3 calls
| | LCCSD(T0): Setup Integrals      :      0.067u      0.000s      0.047w     48 calls
| | LCCSD(T0): Contract Integrals   :      0.133u      0.000s      0.067w     48 calls
| | LCCSD(T0): Form W               :      0.000u      0.000s      0.021w     48 calls
| | LCCSD(T0): Form V               :      0.000u      0.000s      0.001w     48 calls
| Sort Triplets                     :      0.000u      0.000s      0.000w      1 calls
| LCCSD(T) Iterations               :      0.083u      0.000s      0.056w      1 calls
| | Compute (T) Energy              :      0.000u      0.000s      0.004w      4 calls
DLPNO-CCSD: Compute R1              :      0.050u      0.000s      0.029w     50 calls

**************************************************************************************

Host: b6-10

Timers On : Tue Aug 13 22:39:39 2024
Timers Off: Tue Aug 13 22:39:41 2024

Wall Time:        1.50 seconds

                                                       Time (seconds)
Module                                       User      System        Wall        Calls
DFH: sparsity prep                  :      0.000u      0.000s      0.005w      1 calls
Libint2ERI::Libint2ERI              :      0.017u      0.000s      0.015w      9 calls
DFH: initialize()                   :      0.017u      0.000s      0.009w      1 calls
DFH: AO Construction                :      0.000u      0.000s      0.002w      1 calls
DFH: AO-Met. Contraction            :      0.000u      0.000s      0.001w      1 calls
HF: Form core H                     :      0.000u      0.000s      0.001w      1 calls
HF: Form S/X                        :      0.000u      0.000s      0.000w      1 calls
HF: Guess                           :      0.017u      0.017s      0.016w      1 calls
SAD Guess                           :      0.017u      0.017s      0.015w      1 calls
HF: Form G                          :      0.000u      0.000s      0.002w     11 calls
JK: D                               :      0.000u      0.000s      0.000w     11 calls
JK: USO2AO                          :      0.000u      0.000s      0.000w     11 calls
JK: JK                              :      0.000u      0.000s      0.002w     11 calls
DFH: compute_JK()                   :      0.000u      0.000s      0.002w     11 calls
DFH: Grabbing AOs                   :      0.000u      0.000s      0.000w     11 calls
DFH: compute_J                      :      0.000u      0.000s      0.000w     11 calls
DFH: compute_K                      :      0.000u      0.000s      0.001w     11 calls
JK: AO2USO                          :      0.000u      0.000s      0.000w     11 calls
HF: Form F                          :      0.000u      0.000s      0.000w     11 calls
HF: Form D                          :      0.000u      0.000s      0.000w     11 calls
HF: DIIS                            :      0.167u      0.033s      0.143w     10 calls
HF: Form C                          :      0.000u      0.000s      0.002w     10 calls
DLPNO-CCSD(T)                       :      1.000u      0.000s      0.600w      1 calls
DLPNO-CCSD                          :      0.650u      0.000s      0.389w      1 calls
Setup Orbitals                      :      0.000u      0.000s      0.001w      1 calls
Local MOs                           :      0.000u      0.000s      0.001w      1 calls
Projected AOs                       :      0.000u      0.000s      0.000w      1 calls
Overlap Ints                        :      0.000u      0.000s      0.003w      1 calls
Construct Grid                      :      0.000u      0.000s      0.001w      1 calls
build grid                          :      0.000u      0.000s      0.001w      1 calls
post-process grid                   :      0.000u      0.000s      0.000w      1 calls
Integration                         :      0.000u      0.000s      0.002w      1 calls
Dipole Ints                         :      0.017u      0.000s      0.001w      1 calls
Compute Metric                      :      0.000u      0.000s      0.001w      1 calls
(K|L)                               :      0.000u      0.000s      0.001w      1 calls
Sparsity                            :      0.000u      0.000s      0.001w      3 calls
Crude DF Ints                       :      0.000u      0.000s      0.005w      1 calls
(mn|K) -> (ia|K)                    :      0.017u      0.000s      0.009w      2 calls
Crude Pair Prescreening             :      0.000u      0.000s      0.002w      1 calls
Refined DF Ints                     :      0.017u      0.000s      0.004w      1 calls
Refined Pair Prescreening           :      0.000u      0.000s      0.003w      1 calls
PNO-LMP2 Iterations                 :      0.017u      0.000s      0.009w      1 calls
DF Ints                             :      0.017u      0.000s      0.008w      1 calls
(mn|K)->(ij|K)                      :      0.000u      0.000s      0.004w      1 calls
(mn|K)->(ab|K)                      :      0.017u      0.000s      0.004w      1 calls
CC Integrals                        :      0.083u      0.000s      0.051w      1 calls
DLPNO-CCSD: Setup Integrals         :      0.033u      0.000s      0.024w     10 calls
DLPNO-CCSD: J_ij_kj Integrals       :      0.050u      0.000s      0.020w     10 calls
DLPNO-CCSD: K_ij_kj Integrals       :      0.000u      0.000s      0.005w     10 calls
DLPNO-CCSD: Contract Integrals      :      0.000u      0.000s      0.001w     10 calls
PNO Overlaps                        :      0.000u      0.000s      0.001w      1 calls
LCCSD                               :      0.500u      0.000s      0.300w      1 calls
DLPNO-CCSD: T1 Ints                 :      0.050u      0.000s      0.034w     14 calls
DLPNO-CCSD: T1 Fock                 :      0.133u      0.000s      0.064w     14 calls
DLPNO-CCSD: Compute R1              :      0.017u      0.000s      0.035w     64 calls
DLPNO-CCSD: Compute R2              :      0.300u      0.000s      0.190w     14 calls
DLPNO-CCSD: beta                    :      0.050u      0.000s      0.033w     14 calls
DLPNO-CCSD: gamma                   :      0.017u      0.000s      0.012w     14 calls
DLPNO-CCSD: delta                   :      0.017u      0.000s      0.014w     14 calls
DLPNO-CCSD: Fkj double tilde        :      0.017u      0.000s      0.004w     14 calls
Triples Sparsity                    :      0.000u      0.000s      0.000w      2 calls
TNO transform                       :      0.000u      0.000s      0.009w      3 calls
LCCSD(T0)                           :      0.250u      0.000s      0.146w      3 calls
LCCSD(T0): Setup Integrals          :      0.050u      0.000s      0.047w     48 calls
LCCSD(T0): Contract Integrals       :      0.133u      0.000s      0.068w     48 calls
LCCSD(T0): Form W                   :      0.017u      0.000s      0.021w     48 calls
LCCSD(T0): Form V                   :      0.000u      0.000s      0.001w     48 calls
Sort Triplets                       :      0.000u      0.000s      0.000w      1 calls
LCCSD(T) Iterations                 :      0.100u      0.000s      0.056w      1 calls
Compute (T) Energy                  :      0.000u      0.000s      0.004w      4 calls

--------------------------------------------------------------------------------------
DFH: sparsity prep                  :      0.000u      0.000s      0.005w      1 calls
| Libint2ERI::Libint2ERI            :      0.000u      0.000s      0.004w      1 calls
DFH: initialize()                   :      0.017u      0.000s      0.009w      1 calls
| Libint2ERI::Libint2ERI            :      0.000u      0.000s      0.002w      2 calls
| DFH: AO Construction              :      0.000u      0.000s      0.002w      1 calls
| DFH: AO-Met. Contraction          :      0.000u      0.000s      0.001w      1 calls
HF: Form core H                     :      0.000u      0.000s      0.001w      1 calls
HF: Form S/X                        :      0.000u      0.000s      0.000w      1 calls
HF: Guess                           :      0.017u      0.017s      0.016w      1 calls
| SAD Guess                         :      0.017u      0.017s      0.015w      1 calls
HF: Form G                          :      0.000u      0.000s      0.002w     11 calls
| JK: D                             :      0.000u      0.000s      0.000w     11 calls
| JK: USO2AO                        :      0.000u      0.000s      0.000w     11 calls
| JK: JK                            :      0.000u      0.000s      0.002w     11 calls
| | DFH: compute_JK()               :      0.000u      0.000s      0.002w     11 calls
| | | DFH: Grabbing AOs             :      0.000u      0.000s      0.000w     11 calls
| | | DFH: compute_J                :      0.000u      0.000s      0.000w     11 calls
| | | DFH: compute_K                :      0.000u      0.000s      0.001w     11 calls
| JK: AO2USO                        :      0.000u      0.000s      0.000w     11 calls
HF: Form F                          :      0.000u      0.000s      0.000w     11 calls
HF: Form D                          :      0.000u      0.000s      0.000w     11 calls
HF: DIIS                            :      0.167u      0.033s      0.143w     10 calls
HF: Form C                          :      0.000u      0.000s      0.002w     10 calls
Libint2ERI::Libint2ERI              :      0.000u      0.000s      0.003w      1 calls
DLPNO-CCSD(T)                       :      1.000u      0.000s      0.600w      1 calls
| DLPNO-CCSD                        :      0.650u      0.000s      0.389w      1 calls
| | Setup Orbitals                  :      0.000u      0.000s      0.001w      1 calls
| | | Local MOs                     :      0.000u      0.000s      0.001w      1 calls
| | | Projected AOs                 :      0.000u      0.000s      0.000w      1 calls
| | Overlap Ints                    :      0.000u      0.000s      0.003w      1 calls
| | | Construct Grid                :      0.000u      0.000s      0.001w      1 calls
| | | | build grid                  :      0.000u      0.000s      0.001w      1 calls
| | | | post-process grid           :      0.000u      0.000s      0.000w      1 calls
| | | Integration                   :      0.000u      0.000s      0.002w      1 calls
| | Dipole Ints                     :      0.017u      0.000s      0.001w      1 calls
| | Compute Metric                  :      0.000u      0.000s      0.001w      1 calls
| | | (K|L)                         :      0.000u      0.000s      0.001w      1 calls
| | | | Libint2ERI::Libint2ERI      :      0.000u      0.000s      0.000w      1 calls
| | Sparsity                        :      0.000u      0.000s      0.001w      3 calls
| | Crude DF Ints                   :      0.000u      0.000s      0.005w      1 calls
| | | (mn|K) -> (ia|K)              :      0.000u      0.000s      0.005w      1 calls
| | | | Libint2ERI::Libint2ERI      :      0.000u      0.000s      0.002w      1 calls
| | Crude Pair Prescreening         :      0.000u      0.000s      0.002w      1 calls
| | Refined DF Ints                 :      0.017u      0.000s      0.004w      1 calls
| | | (mn|K) -> (ia|K)              :      0.017u      0.000s      0.004w      1 calls
| | | | Libint2ERI::Libint2ERI      :      0.017u      0.000s      0.001w      1 calls
| | Refined Pair Prescreening       :      0.000u      0.000s      0.003w      1 calls
| | PNO-LMP2 Iterations             :      0.017u      0.000s      0.009w      1 calls
| | DF Ints                         :      0.017u      0.000s      0.008w      1 calls
| | | (mn|K)->(ij|K)                :      0.000u      0.000s      0.004w      1 calls
| | | | Libint2ERI::Libint2ERI      :      0.000u      0.000s      0.001w      1 calls
| | | (mn|K)->(ab|K)                :      0.017u      0.000s      0.004w      1 calls
| | | | Libint2ERI::Libint2ERI      :      0.000u      0.000s      0.001w      1 calls
| | CC Integrals                    :      0.083u      0.000s      0.051w      1 calls
| | | DLPNO-CCSD: Setup Integrals   :      0.033u      0.000s      0.024w     10 calls
| | | DLPNO-CCSD: J_ij_kj Integrals :      0.050u      0.000s      0.020w     10 calls
| | | DLPNO-CCSD: K_ij_kj Integrals :      0.000u      0.000s      0.005w     10 calls
| | | DLPNO-CCSD: Contract Integrals:      0.000u      0.000s      0.001w     10 calls
| | PNO Overlaps                    :      0.000u      0.000s      0.001w      1 calls
| | LCCSD                           :      0.500u      0.000s      0.300w      1 calls
| | | DLPNO-CCSD: T1 Ints           :      0.050u      0.000s      0.034w     14 calls
| | | DLPNO-CCSD: T1 Fock           :      0.133u      0.000s      0.064w     14 calls
| | | DLPNO-CCSD: Compute R1        :      0.000u      0.000s      0.007w     14 calls
| | | DLPNO-CCSD: Compute R2        :      0.300u      0.000s      0.190w     14 calls
| | | | DLPNO-CCSD: beta            :      0.050u      0.000s      0.033w     14 calls
| | | | DLPNO-CCSD: gamma           :      0.017u      0.000s      0.012w     14 calls
| | | | DLPNO-CCSD: delta           :      0.017u      0.000s      0.014w     14 calls
| | | | DLPNO-CCSD: Fkj double tilde:      0.017u      0.000s      0.004w     14 calls
| Triples Sparsity                  :      0.000u      0.000s      0.000w      2 calls
| TNO transform                     :      0.000u      0.000s      0.009w      3 calls
| LCCSD(T0)                         :      0.250u      0.000s      0.146w      3 calls
| | LCCSD(T0): Setup Integrals      :      0.050u      0.000s      0.047w     48 calls
| | LCCSD(T0): Contract Integrals   :      0.133u      0.000s      0.068w     48 calls
| | LCCSD(T0): Form W               :      0.017u      0.000s      0.021w     48 calls
| | LCCSD(T0): Form V               :      0.000u      0.000s      0.001w     48 calls
| Sort Triplets                     :      0.000u      0.000s      0.000w      1 calls
| LCCSD(T) Iterations               :      0.100u      0.000s      0.056w      1 calls
| | Compute (T) Energy              :      0.000u      0.000s      0.004w      4 calls
DLPNO-CCSD: Compute R1              :      0.017u      0.000s      0.028w     50 calls

**************************************************************************************

Host: b6-10

Timers On : Tue Aug 13 22:39:53 2024
Timers Off: Tue Aug 13 22:39:55 2024

Wall Time:        1.49 seconds

                                                       Time (seconds)
Module                                       User      System        Wall        Calls
DFH: sparsity prep                  :      0.000u      0.000s      0.005w      1 calls
Libint2ERI::Libint2ERI              :      0.000u      0.000s      0.015w      9 calls
DFH: initialize()                   :      0.017u      0.000s      0.009w      1 calls
DFH: AO Construction                :      0.000u      0.000s      0.002w      1 calls
DFH: AO-Met. Contraction            :      0.000u      0.000s      0.001w      1 calls
HF: Form core H                     :      0.000u      0.000s      0.001w      1 calls
HF: Form S/X                        :      0.000u      0.000s      0.000w      1 calls
HF: Guess                           :      0.033u      0.000s      0.016w      1 calls
SAD Guess                           :      0.033u      0.000s      0.015w      1 calls
HF: Form G                          :      0.000u      0.000s      0.002w     11 calls
JK: D                               :      0.000u      0.000s      0.000w     11 calls
JK: USO2AO                          :      0.000u      0.000s      0.000w     11 calls
JK: JK                              :      0.000u      0.000s      0.002w     11 calls
DFH: compute_JK()                   :      0.000u      0.000s      0.002w     11 calls
DFH: Grabbing AOs                   :      0.000u      0.000s      0.000w     11 calls
DFH: compute_J                      :      0.000u      0.000s      0.000w     11 calls
DFH: compute_K                      :      0.000u      0.000s      0.001w     11 calls
JK: AO2USO                          :      0.000u      0.000s      0.000w     11 calls
HF: Form F                          :      0.000u      0.000s      0.000w     11 calls
HF: Form D                          :      0.000u      0.000s      0.000w     11 calls
HF: DIIS                            :      0.167u      0.033s      0.143w     10 calls
HF: Form C                          :      0.000u      0.000s      0.002w     10 calls
DLPNO-CCSD(T)                       :      0.983u      0.000s      0.595w      1 calls
DLPNO-CCSD                          :      0.633u      0.000s      0.384w      1 calls
Setup Orbitals                      :      0.000u      0.000s      0.001w      1 calls
Local MOs                           :      0.000u      0.000s      0.001w      1 calls
Projected AOs                       :      0.000u      0.000s      0.000w      1 calls
Overlap Ints                        :      0.000u      0.000s      0.003w      1 calls
Construct Grid                      :      0.000u      0.000s      0.001w      1 calls
build grid                          :      0.000u      0.000s      0.001w      1 calls
post-process grid                   :      0.000u      0.000s      0.000w      1 calls
Integration                         :      0.000u      0.000s      0.002w      1 calls
Dipole Ints                         :      0.000u      0.000s      0.001w      1 calls
Compute Metric                      :      0.000u      0.000s      0.001w      1 calls
(K|L)                               :      0.000u      0.000s      0.001w      1 calls
Sparsity                            :      0.017u      0.000s      0.000w      3 calls
Crude DF Ints                       :      0.000u      0.000s      0.005w      1 calls
(mn|K) -> (ia|K)                    :      0.017u      0.000s      0.009w      2 calls
Crude Pair Prescreening             :      0.000u      0.000s      0.002w      1 calls
Refined DF Ints                     :      0.017u      0.000s      0.004w      1 calls
Refined Pair Prescreening           :      0.000u      0.000s      0.003w      1 calls
PNO-LMP2 Iterations                 :      0.017u      0.000s      0.009w      1 calls
DF Ints                             :      0.000u      0.000s      0.008w      1 calls
(mn|K)->(ij|K)                      :      0.000u      0.000s      0.004w      1 calls
(mn|K)->(ab|K)                      :      0.000u      0.000s      0.004w      1 calls
CC Integrals                        :      0.100u      0.000s      0.051w      1 calls
DLPNO-CCSD: Setup Integrals         :      0.017u      0.000s      0.024w     10 calls
DLPNO-CCSD: J_ij_kj Integrals       :      0.067u      0.000s      0.020w     10 calls
DLPNO-CCSD: K_ij_kj Integrals       :      0.000u      0.000s      0.005w     10 calls
DLPNO-CCSD: Contract Integrals      :      0.017u      0.000s      0.001w     10 calls
PNO Overlaps                        :      0.000u      0.000s      0.001w      1 calls
LCCSD                               :      0.483u      0.000s      0.296w      1 calls
DLPNO-CCSD: T1 Ints                 :      0.033u      0.000s      0.033w     14 calls
DLPNO-CCSD: T1 Fock                 :      0.133u      0.000s      0.062w     14 calls
DLPNO-CCSD: Compute R1              :      0.033u      0.000s      0.035w     64 calls
DLPNO-CCSD: Compute R2              :      0.317u      0.000s      0.187w     14 calls
DLPNO-CCSD: beta                    :      0.067u      0.000s      0.033w     14 calls
DLPNO-CCSD: gamma                   :      0.017u      0.000s      0.012w     14 calls
DLPNO-CCSD: delta                   :      0.017u      0.000s      0.014w     14 calls
DLPNO-CCSD: Fkj double tilde        :      0.000u      0.000s      0.004w     14 calls
Triples Sparsity                    :      0.000u      0.000s      0.000w      2 calls
TNO transform                       :      0.033u      0.000s      0.009w      3 calls
LCCSD(T0)                           :      0.217u      0.000s      0.145w      3 calls
LCCSD(T0): Setup Integrals          :      0.083u      0.000s      0.047w     48 calls
LCCSD(T0): Contract Integrals       :      0.100u      0.000s      0.068w     48 calls
LCCSD(T0): Form W                   :      0.017u      0.000s      0.021w     48 calls
LCCSD(T0): Form V                   :      0.017u      0.000s      0.001w     48 calls
Sort Triplets                       :      0.000u      0.000s      0.000w      1 calls
LCCSD(T) Iterations                 :      0.100u      0.000s      0.056w      1 calls
Compute (T) Energy                  :      0.000u      0.000s      0.004w      4 calls

--------------------------------------------------------------------------------------
DFH: sparsity prep                  :      0.000u      0.000s      0.005w      1 calls
| Libint2ERI::Libint2ERI            :      0.000u      0.000s      0.004w      1 calls
DFH: initialize()                   :      0.017u      0.000s      0.009w      1 calls
| Libint2ERI::Libint2ERI            :      0.000u      0.000s      0.002w      2 calls
| DFH: AO Construction              :      0.000u      0.000s      0.002w      1 calls
| DFH: AO-Met. Contraction          :      0.000u      0.000s      0.001w      1 calls
HF: Form core H                     :      0.000u      0.000s      0.001w      1 calls
HF: Form S/X                        :      0.000u      0.000s      0.000w      1 calls
HF: Guess                           :      0.033u      0.000s      0.016w      1 calls
| SAD Guess                         :      0.033u      0.000s      0.015w      1 calls
HF: Form G                          :      0.000u      0.000s      0.002w     11 calls
| JK: D                             :      0.000u      0.000s      0.000w     11 calls
| JK: USO2AO                        :      0.000u      0.000s      0.000w     11 calls
| JK: JK                            :      0.000u      0.000s      0.002w     11 calls
| | DFH: compute_JK()               :      0.000u      0.000s      0.002w     11 calls
| | | DFH: Grabbing AOs             :      0.000u      0.000s      0.000w     11 calls
| | | DFH: compute_J                :      0.000u      0.000s      0.000w     11 calls
| | | DFH: compute_K                :      0.000u      0.000s      0.001w     11 calls
| JK: AO2USO                        :      0.000u      0.000s      0.000w     11 calls
HF: Form F                          :      0.000u      0.000s      0.000w     11 calls
HF: Form D                          :      0.000u      0.000s      0.000w     11 calls
HF: DIIS                            :      0.167u      0.033s      0.143w     10 calls
HF: Form C                          :      0.000u      0.000s      0.002w     10 calls
Libint2ERI::Libint2ERI              :      0.000u      0.000s      0.003w      1 calls
DLPNO-CCSD(T)                       :      0.983u      0.000s      0.595w      1 calls
| DLPNO-CCSD                        :      0.633u      0.000s      0.384w      1 calls
| | Setup Orbitals                  :      0.000u      0.000s      0.001w      1 calls
| | | Local MOs                     :      0.000u      0.000s      0.001w      1 calls
| | | Projected AOs                 :      0.000u      0.000s      0.000w      1 calls
| | Overlap Ints                    :      0.000u      0.000s      0.003w      1 calls
| | | Construct Grid                :      0.000u      0.000s      0.001w      1 calls
| | | | build grid                  :      0.000u      0.000s      0.001w      1 calls
| | | | post-process grid           :      0.000u      0.000s      0.000w      1 calls
| | | Integration                   :      0.000u      0.000s      0.002w      1 calls
| | Dipole Ints                     :      0.000u      0.000s      0.001w      1 calls
| | Compute Metric                  :      0.000u      0.000s      0.001w      1 calls
| | | (K|L)                         :      0.000u      0.000s      0.001w      1 calls
| | | | Libint2ERI::Libint2ERI      :      0.000u      0.000s      0.000w      1 calls
| | Sparsity                        :      0.017u      0.000s      0.000w      3 calls
| | Crude DF Ints                   :      0.000u      0.000s      0.005w      1 calls
| | | (mn|K) -> (ia|K)              :      0.000u      0.000s      0.005w      1 calls
| | | | Libint2ERI::Libint2ERI      :      0.000u      0.000s      0.002w      1 calls
| | Crude Pair Prescreening         :      0.000u      0.000s      0.002w      1 calls
| | Refined DF Ints                 :      0.017u      0.000s      0.004w      1 calls
| | | (mn|K) -> (ia|K)              :      0.017u      0.000s      0.004w      1 calls
| | | | Libint2ERI::Libint2ERI      :      0.000u      0.000s      0.001w      1 calls
| | Refined Pair Prescreening       :      0.000u      0.000s      0.003w      1 calls
| | PNO-LMP2 Iterations             :      0.017u      0.000s      0.009w      1 calls
| | DF Ints                         :      0.000u      0.000s      0.008w      1 calls
| | | (mn|K)->(ij|K)                :      0.000u      0.000s      0.004w      1 calls
| | | | Libint2ERI::Libint2ERI      :      0.000u      0.000s      0.001w      1 calls
| | | (mn|K)->(ab|K)                :      0.000u      0.000s      0.004w      1 calls
| | | | Libint2ERI::Libint2ERI      :      0.000u      0.000s      0.001w      1 calls
| | CC Integrals                    :      0.100u      0.000s      0.051w      1 calls
| | | DLPNO-CCSD: Setup Integrals   :      0.017u      0.000s      0.024w     10 calls
| | | DLPNO-CCSD: J_ij_kj Integrals :      0.067u      0.000s      0.020w     10 calls
| | | DLPNO-CCSD: K_ij_kj Integrals :      0.000u      0.000s      0.005w     10 calls
| | | DLPNO-CCSD: Contract Integrals:      0.017u      0.000s      0.001w     10 calls
| | PNO Overlaps                    :      0.000u      0.000s      0.001w      1 calls
| | LCCSD                           :      0.483u      0.000s      0.296w      1 calls
| | | DLPNO-CCSD: T1 Ints           :      0.033u      0.000s      0.033w     14 calls
| | | DLPNO-CCSD: T1 Fock           :      0.133u      0.000s      0.062w     14 calls
| | | DLPNO-CCSD: Compute R1        :      0.000u      0.000s      0.007w     14 calls
| | | DLPNO-CCSD: Compute R2        :      0.317u      0.000s      0.187w     14 calls
| | | | DLPNO-CCSD: beta            :      0.067u      0.000s      0.033w     14 calls
| | | | DLPNO-CCSD: gamma           :      0.017u      0.000s      0.012w     14 calls
| | | | DLPNO-CCSD: delta           :      0.017u      0.000s      0.014w     14 calls
| | | | DLPNO-CCSD: Fkj double tilde:      0.000u      0.000s      0.004w     14 calls
| Triples Sparsity                  :      0.000u      0.000s      0.000w      2 calls
| TNO transform                     :      0.033u      0.000s      0.009w      3 calls
| LCCSD(T0)                         :      0.217u      0.000s      0.145w      3 calls
| | LCCSD(T0): Setup Integrals      :      0.083u      0.000s      0.047w     48 calls
| | LCCSD(T0): Contract Integrals   :      0.100u      0.000s      0.068w     48 calls
| | LCCSD(T0): Form W               :      0.017u      0.000s      0.021w     48 calls
| | LCCSD(T0): Form V               :      0.017u      0.000s      0.001w     48 calls
| Sort Triplets                     :      0.000u      0.000s      0.000w      1 calls
| LCCSD(T) Iterations               :      0.100u      0.000s      0.056w      1 calls
| | Compute (T) Energy              :      0.000u      0.000s      0.004w      4 calls
DLPNO-CCSD: Compute R1              :      0.033u      0.000s      0.028w     50 calls

**************************************************************************************

Host: b6-10

Timers On : Tue Aug 13 22:42:51 2024
Timers Off: Tue Aug 13 22:42:53 2024

Wall Time:        1.64 seconds

                                                       Time (seconds)
Module                                       User      System        Wall        Calls
DFH: sparsity prep                  :      0.000u      0.000s      0.005w      1 calls
Libint2ERI::Libint2ERI              :      0.017u      0.000s      0.015w      9 calls
DFH: initialize()                   :      0.017u      0.000s      0.009w      1 calls
DFH: AO Construction                :      0.000u      0.000s      0.002w      1 calls
DFH: AO-Met. Contraction            :      0.000u      0.000s      0.001w      1 calls
HF: Form core H                     :      0.000u      0.000s      0.001w      1 calls
HF: Form S/X                        :      0.000u      0.000s      0.000w      1 calls
HF: Guess                           :      0.033u      0.000s      0.016w      1 calls
SAD Guess                           :      0.033u      0.000s      0.015w      1 calls
HF: Form G                          :      0.000u      0.000s      0.002w     11 calls
JK: D                               :      0.000u      0.000s      0.000w     11 calls
JK: USO2AO                          :      0.000u      0.000s      0.000w     11 calls
JK: JK                              :      0.000u      0.000s      0.002w     11 calls
DFH: compute_JK()                   :      0.000u      0.000s      0.002w     11 calls
DFH: Grabbing AOs                   :      0.000u      0.000s      0.000w     11 calls
DFH: compute_J                      :      0.000u      0.000s      0.000w     11 calls
DFH: compute_K                      :      0.000u      0.000s      0.001w     11 calls
JK: AO2USO                          :      0.000u      0.000s      0.000w     11 calls
HF: Form F                          :      0.000u      0.000s      0.000w     11 calls
HF: Form D                          :      0.000u      0.000s      0.000w     11 calls
HF: DIIS                            :      0.183u      0.050s      0.204w     10 calls
HF: Form C                          :      0.000u      0.000s      0.002w     10 calls
DLPNO-CCSD(T)                       :      1.000u      0.000s      0.599w      1 calls
DLPNO-CCSD                          :      0.650u      0.000s      0.389w      1 calls
Setup Orbitals                      :      0.000u      0.000s      0.001w      1 calls
Local MOs                           :      0.000u      0.000s      0.001w      1 calls
Projected AOs                       :      0.000u      0.000s      0.000w      1 calls
Overlap Ints                        :      0.017u      0.000s      0.003w      1 calls
Construct Grid                      :      0.000u      0.000s      0.001w      1 calls
build grid                          :      0.000u      0.000s      0.001w      1 calls
post-process grid                   :      0.000u      0.000s      0.000w      1 calls
Integration                         :      0.017u      0.000s      0.002w      1 calls
Dipole Ints                         :      0.000u      0.000s      0.001w      1 calls
Compute Metric                      :      0.000u      0.000s      0.001w      1 calls
(K|L)                               :      0.000u      0.000s      0.001w      1 calls
Sparsity                            :      0.000u      0.000s      0.000w      3 calls
Crude DF Ints                       :      0.000u      0.000s      0.005w      1 calls
(mn|K) -> (ia|K)                    :      0.000u      0.000s      0.009w      2 calls
Crude Pair Prescreening             :      0.017u      0.000s      0.002w      1 calls
Refined DF Ints                     :      0.000u      0.000s      0.004w      1 calls
Refined Pair Prescreening           :      0.000u      0.000s      0.003w      1 calls
PNO-LMP2 Iterations                 :      0.017u      0.000s      0.009w      1 calls
DF Ints                             :      0.017u      0.000s      0.008w      1 calls
(mn|K)->(ij|K)                      :      0.000u      0.000s      0.004w      1 calls
(mn|K)->(ab|K)                      :      0.017u      0.000s      0.004w      1 calls
CC Integrals                        :      0.083u      0.000s      0.051w      1 calls
DLPNO-CCSD: Setup Integrals         :      0.050u      0.000s      0.024w     10 calls
DLPNO-CCSD: J_ij_kj Integrals       :      0.017u      0.000s      0.020w     10 calls
DLPNO-CCSD: K_ij_kj Integrals       :      0.017u      0.000s      0.005w     10 calls
DLPNO-CCSD: Contract Integrals      :      0.000u      0.000s      0.001w     10 calls
PNO Overlaps                        :      0.000u      0.000s      0.001w      1 calls
LCCSD                               :      0.500u      0.000s      0.300w      1 calls
DLPNO-CCSD: T1 Ints                 :      0.067u      0.000s      0.034w     14 calls
DLPNO-CCSD: T1 Fock                 :      0.100u      0.000s      0.063w     14 calls
DLPNO-CCSD: Compute R1              :      0.033u      0.000s      0.036w     64 calls
DLPNO-CCSD: Compute R2              :      0.317u      0.000s      0.190w     14 calls
DLPNO-CCSD: beta                    :      0.050u      0.000s      0.033w     14 calls
DLPNO-CCSD: gamma                   :      0.033u      0.000s      0.012w     14 calls
DLPNO-CCSD: delta                   :      0.033u      0.000s      0.014w     14 calls
DLPNO-CCSD: Fkj double tilde        :      0.000u      0.000s      0.004w     14 calls
Triples Sparsity                    :      0.000u      0.000s      0.000w      2 calls
TNO transform                       :      0.017u      0.000s      0.009w      3 calls
LCCSD(T0)                           :      0.233u      0.000s      0.145w      3 calls
LCCSD(T0): Setup Integrals          :      0.083u      0.000s      0.047w     48 calls
LCCSD(T0): Contract Integrals       :      0.117u      0.000s      0.068w     48 calls
LCCSD(T0): Form W                   :      0.017u      0.000s      0.021w     48 calls
LCCSD(T0): Form V                   :      0.000u      0.000s      0.001w     48 calls
Sort Triplets                       :      0.000u      0.000s      0.000w      1 calls
LCCSD(T) Iterations                 :      0.100u      0.000s      0.056w      1 calls
Compute (T) Energy                  :      0.000u      0.000s      0.004w      4 calls

--------------------------------------------------------------------------------------
DFH: sparsity prep                  :      0.000u      0.000s      0.005w      1 calls
| Libint2ERI::Libint2ERI            :      0.000u      0.000s      0.004w      1 calls
DFH: initialize()                   :      0.017u      0.000s      0.009w      1 calls
| Libint2ERI::Libint2ERI            :      0.017u      0.000s      0.002w      2 calls
| DFH: AO Construction              :      0.000u      0.000s      0.002w      1 calls
| DFH: AO-Met. Contraction          :      0.000u      0.000s      0.001w      1 calls
HF: Form core H                     :      0.000u      0.000s      0.001w      1 calls
HF: Form S/X                        :      0.000u      0.000s      0.000w      1 calls
HF: Guess                           :      0.033u      0.000s      0.016w      1 calls
| SAD Guess                         :      0.033u      0.000s      0.015w      1 calls
HF: Form G                          :      0.000u      0.000s      0.002w     11 calls
| JK: D                             :      0.000u      0.000s      0.000w     11 calls
| JK: USO2AO                        :      0.000u      0.000s      0.000w     11 calls
| JK: JK                            :      0.000u      0.000s      0.002w     11 calls
| | DFH: compute_JK()               :      0.000u      0.000s      0.002w     11 calls
| | | DFH: Grabbing AOs             :      0.000u      0.000s      0.000w     11 calls
| | | DFH: compute_J                :      0.000u      0.000s      0.000w     11 calls
| | | DFH: compute_K                :      0.000u      0.000s      0.001w     11 calls
| JK: AO2USO                        :      0.000u      0.000s      0.000w     11 calls
HF: Form F                          :      0.000u      0.000s      0.000w     11 calls
HF: Form D                          :      0.000u      0.000s      0.000w     11 calls
HF: DIIS                            :      0.183u      0.050s      0.204w     10 calls
HF: Form C                          :      0.000u      0.000s      0.002w     10 calls
Libint2ERI::Libint2ERI              :      0.000u      0.000s      0.003w      1 calls
DLPNO-CCSD(T)                       :      1.000u      0.000s      0.599w      1 calls
| DLPNO-CCSD                        :      0.650u      0.000s      0.389w      1 calls
| | Setup Orbitals                  :      0.000u      0.000s      0.001w      1 calls
| | | Local MOs                     :      0.000u      0.000s      0.001w      1 calls
| | | Projected AOs                 :      0.000u      0.000s      0.000w      1 calls
| | Overlap Ints                    :      0.017u      0.000s      0.003w      1 calls
| | | Construct Grid                :      0.000u      0.000s      0.001w      1 calls
| | | | build grid                  :      0.000u      0.000s      0.001w      1 calls
| | | | post-process grid           :      0.000u      0.000s      0.000w      1 calls
| | | Integration                   :      0.017u      0.000s      0.002w      1 calls
| | Dipole Ints                     :      0.000u      0.000s      0.001w      1 calls
| | Compute Metric                  :      0.000u      0.000s      0.001w      1 calls
| | | (K|L)                         :      0.000u      0.000s      0.001w      1 calls
| | | | Libint2ERI::Libint2ERI      :      0.000u      0.000s      0.000w      1 calls
| | Sparsity                        :      0.000u      0.000s      0.000w      3 calls
| | Crude DF Ints                   :      0.000u      0.000s      0.005w      1 calls
| | | (mn|K) -> (ia|K)              :      0.000u      0.000s      0.005w      1 calls
| | | | Libint2ERI::Libint2ERI      :      0.000u      0.000s      0.002w      1 calls
| | Crude Pair Prescreening         :      0.017u      0.000s      0.002w      1 calls
| | Refined DF Ints                 :      0.000u      0.000s      0.004w      1 calls
| | | (mn|K) -> (ia|K)              :      0.000u      0.000s      0.004w      1 calls
| | | | Libint2ERI::Libint2ERI      :      0.000u      0.000s      0.001w      1 calls
| | Refined Pair Prescreening       :      0.000u      0.000s      0.003w      1 calls
| | PNO-LMP2 Iterations             :      0.017u      0.000s      0.009w      1 calls
| | DF Ints                         :      0.017u      0.000s      0.008w      1 calls
| | | (mn|K)->(ij|K)                :      0.000u      0.000s      0.004w      1 calls
| | | | Libint2ERI::Libint2ERI      :      0.000u      0.000s      0.001w      1 calls
| | | (mn|K)->(ab|K)                :      0.017u      0.000s      0.004w      1 calls
| | | | Libint2ERI::Libint2ERI      :      0.000u      0.000s      0.001w      1 calls
| | CC Integrals                    :      0.083u      0.000s      0.051w      1 calls
| | | DLPNO-CCSD: Setup Integrals   :      0.050u      0.000s      0.024w     10 calls
| | | DLPNO-CCSD: J_ij_kj Integrals :      0.017u      0.000s      0.020w     10 calls
| | | DLPNO-CCSD: K_ij_kj Integrals :      0.017u      0.000s      0.005w     10 calls
| | | DLPNO-CCSD: Contract Integrals:      0.000u      0.000s      0.001w     10 calls
| | PNO Overlaps                    :      0.000u      0.000s      0.001w      1 calls
| | LCCSD                           :      0.500u      0.000s      0.300w      1 calls
| | | DLPNO-CCSD: T1 Ints           :      0.067u      0.000s      0.034w     14 calls
| | | DLPNO-CCSD: T1 Fock           :      0.100u      0.000s      0.063w     14 calls
| | | DLPNO-CCSD: Compute R1        :      0.017u      0.000s      0.007w     14 calls
| | | DLPNO-CCSD: Compute R2        :      0.317u      0.000s      0.190w     14 calls
| | | | DLPNO-CCSD: beta            :      0.050u      0.000s      0.033w     14 calls
| | | | DLPNO-CCSD: gamma           :      0.033u      0.000s      0.012w     14 calls
| | | | DLPNO-CCSD: delta           :      0.033u      0.000s      0.014w     14 calls
| | | | DLPNO-CCSD: Fkj double tilde:      0.000u      0.000s      0.004w     14 calls
| Triples Sparsity                  :      0.000u      0.000s      0.000w      2 calls
| TNO transform                     :      0.017u      0.000s      0.009w      3 calls
| LCCSD(T0)                         :      0.233u      0.000s      0.145w      3 calls
| | LCCSD(T0): Setup Integrals      :      0.083u      0.000s      0.047w     48 calls
| | LCCSD(T0): Contract Integrals   :      0.117u      0.000s      0.068w     48 calls
| | LCCSD(T0): Form W               :      0.017u      0.000s      0.021w     48 calls
| | LCCSD(T0): Form V               :      0.000u      0.000s      0.001w     48 calls
| Sort Triplets                     :      0.000u      0.000s      0.000w      1 calls
| LCCSD(T) Iterations               :      0.100u      0.000s      0.056w      1 calls
| | Compute (T) Energy              :      0.000u      0.000s      0.004w      4 calls
DLPNO-CCSD: Compute R1              :      0.017u      0.000s      0.028w     50 calls

**************************************************************************************

Host: b6-10

Timers On : Tue Aug 13 23:26:52 2024
Timers Off: Tue Aug 13 23:26:57 2024

Wall Time:        5.17 seconds

                                                       Time (seconds)
Module                                       User      System        Wall        Calls
DFH: sparsity prep                  :      0.000u      0.017s      0.005w      1 calls
Libint2ERI::Libint2ERI              :      0.033u      0.017s      0.015w      9 calls
DFH: initialize()                   :      0.017u      0.000s      0.009w      1 calls
DFH: AO Construction                :      0.000u      0.000s      0.002w      1 calls
DFH: AO-Met. Contraction            :      0.000u      0.000s      0.001w      1 calls
HF: Form core H                     :      0.000u      0.000s      0.001w      1 calls
HF: Form S/X                        :      0.000u      0.000s      0.000w      1 calls
HF: Guess                           :      0.033u      0.000s      0.016w      1 calls
SAD Guess                           :      0.033u      0.000s      0.015w      1 calls
HF: Form G                          :      0.000u      0.000s      0.002w     11 calls
JK: D                               :      0.000u      0.000s      0.000w     11 calls
JK: USO2AO                          :      0.000u      0.000s      0.000w     11 calls
JK: JK                              :      0.000u      0.000s      0.002w     11 calls
DFH: compute_JK()                   :      0.000u      0.000s      0.002w     11 calls
DFH: Grabbing AOs                   :      0.000u      0.000s      0.000w     11 calls
DFH: compute_J                      :      0.000u      0.000s      0.000w     11 calls
DFH: compute_K                      :      0.000u      0.000s      0.001w     11 calls
JK: AO2USO                          :      0.000u      0.000s      0.000w     11 calls
HF: Form F                          :      0.000u      0.000s      0.000w     11 calls
HF: Form D                          :      0.000u      0.000s      0.000w     11 calls
HF: DIIS                            :      0.167u      0.050s      0.210w     10 calls
HF: Form C                          :      0.000u      0.000s      0.002w     10 calls
DLPNO-CCSD(T)                       :      1.000u      0.000s      0.599w      1 calls
DLPNO-CCSD                          :      0.650u      0.000s      0.388w      1 calls
Setup Orbitals                      :      0.000u      0.000s      0.001w      1 calls
Local MOs                           :      0.000u      0.000s      0.001w      1 calls
Projected AOs                       :      0.000u      0.000s      0.000w      1 calls
Overlap Ints                        :      0.017u      0.000s      0.003w      1 calls
Construct Grid                      :      0.000u      0.000s      0.001w      1 calls
build grid                          :      0.000u      0.000s      0.001w      1 calls
post-process grid                   :      0.000u      0.000s      0.000w      1 calls
Integration                         :      0.017u      0.000s      0.002w      1 calls
Dipole Ints                         :      0.000u      0.000s      0.001w      1 calls
Compute Metric                      :      0.000u      0.000s      0.001w      1 calls
(K|L)                               :      0.000u      0.000s      0.001w      1 calls
Sparsity                            :      0.000u      0.000s      0.000w      3 calls
Crude DF Ints                       :      0.000u      0.000s      0.004w      1 calls
(mn|K) -> (ia|K)                    :      0.017u      0.000s      0.009w      2 calls
Crude Pair Prescreening             :      0.000u      0.000s      0.002w      1 calls
Refined DF Ints                     :      0.017u      0.000s      0.004w      1 calls
Refined Pair Prescreening           :      0.000u      0.000s      0.003w      1 calls
PNO-LMP2 Iterations                 :      0.017u      0.000s      0.009w      1 calls
DF Ints                             :      0.017u      0.000s      0.008w      1 calls
(mn|K)->(ij|K)                      :      0.000u      0.000s      0.004w      1 calls
(mn|K)->(ab|K)                      :      0.017u      0.000s      0.004w      1 calls
CC Integrals                        :      0.083u      0.000s      0.051w      1 calls
DLPNO-CCSD: Setup Integrals         :      0.067u      0.000s      0.024w     10 calls
DLPNO-CCSD: J_ij_kj Integrals       :      0.017u      0.000s      0.020w     10 calls
DLPNO-CCSD: K_ij_kj Integrals       :      0.000u      0.000s      0.005w     10 calls
DLPNO-CCSD: Contract Integrals      :      0.000u      0.000s      0.001w     10 calls
PNO Overlaps                        :      0.000u      0.000s      0.001w      1 calls
LCCSD                               :      0.500u      0.000s      0.299w      1 calls
DLPNO-CCSD: T1 Ints                 :      0.067u      0.000s      0.034w     14 calls
DLPNO-CCSD: T1 Fock                 :      0.117u      0.000s      0.063w     14 calls
DLPNO-CCSD: Compute R1              :      0.017u      0.000s      0.034w     64 calls
DLPNO-CCSD: Compute R2              :      1.500u      0.000s      0.902w     64 calls
DLPNO-CCSD: beta                    :      0.300u      0.000s      0.155w     64 calls
DLPNO-CCSD: gamma                   :      0.033u      0.000s      0.056w     64 calls
DLPNO-CCSD: delta                   :      0.100u      0.000s      0.065w     64 calls
DLPNO-CCSD: Fkj double tilde        :      0.017u      0.000s      0.020w     64 calls
Triples Sparsity                    :      0.000u      0.000s      0.000w      2 calls
TNO transform                       :      0.000u      0.000s      0.009w      3 calls
LCCSD(T0)                           :      0.250u      0.000s      0.145w      3 calls
LCCSD(T0): Setup Integrals          :      0.067u      0.000s      0.047w     48 calls
LCCSD(T0): Contract Integrals       :      0.117u      0.000s      0.068w     48 calls
LCCSD(T0): Form W                   :      0.050u      0.000s      0.021w     48 calls
LCCSD(T0): Form V                   :      0.000u      0.000s      0.001w     48 calls
Sort Triplets                       :      0.000u      0.000s      0.000w      1 calls
LCCSD(T) Iterations                 :      0.100u      0.000s      0.057w      1 calls
Compute (T) Energy                  :      0.000u      0.000s      0.004w      4 calls

--------------------------------------------------------------------------------------
DFH: sparsity prep                  :      0.000u      0.017s      0.005w      1 calls
| Libint2ERI::Libint2ERI            :      0.000u      0.017s      0.004w      1 calls
DFH: initialize()                   :      0.017u      0.000s      0.009w      1 calls
| Libint2ERI::Libint2ERI            :      0.000u      0.000s      0.002w      2 calls
| DFH: AO Construction              :      0.000u      0.000s      0.002w      1 calls
| DFH: AO-Met. Contraction          :      0.000u      0.000s      0.001w      1 calls
HF: Form core H                     :      0.000u      0.000s      0.001w      1 calls
HF: Form S/X                        :      0.000u      0.000s      0.000w      1 calls
HF: Guess                           :      0.033u      0.000s      0.016w      1 calls
| SAD Guess                         :      0.033u      0.000s      0.015w      1 calls
HF: Form G                          :      0.000u      0.000s      0.002w     11 calls
| JK: D                             :      0.000u      0.000s      0.000w     11 calls
| JK: USO2AO                        :      0.000u      0.000s      0.000w     11 calls
| JK: JK                            :      0.000u      0.000s      0.002w     11 calls
| | DFH: compute_JK()               :      0.000u      0.000s      0.002w     11 calls
| | | DFH: Grabbing AOs             :      0.000u      0.000s      0.000w     11 calls
| | | DFH: compute_J                :      0.000u      0.000s      0.000w     11 calls
| | | DFH: compute_K                :      0.000u      0.000s      0.001w     11 calls
| JK: AO2USO                        :      0.000u      0.000s      0.000w     11 calls
HF: Form F                          :      0.000u      0.000s      0.000w     11 calls
HF: Form D                          :      0.000u      0.000s      0.000w     11 calls
HF: DIIS                            :      0.167u      0.050s      0.210w     10 calls
HF: Form C                          :      0.000u      0.000s      0.002w     10 calls
Libint2ERI::Libint2ERI              :      0.000u      0.000s      0.003w      1 calls
DLPNO-CCSD(T)                       :      1.000u      0.000s      0.599w      1 calls
| DLPNO-CCSD                        :      0.650u      0.000s      0.388w      1 calls
| | Setup Orbitals                  :      0.000u      0.000s      0.001w      1 calls
| | | Local MOs                     :      0.000u      0.000s      0.001w      1 calls
| | | Projected AOs                 :      0.000u      0.000s      0.000w      1 calls
| | Overlap Ints                    :      0.017u      0.000s      0.003w      1 calls
| | | Construct Grid                :      0.000u      0.000s      0.001w      1 calls
| | | | build grid                  :      0.000u      0.000s      0.001w      1 calls
| | | | post-process grid           :      0.000u      0.000s      0.000w      1 calls
| | | Integration                   :      0.017u      0.000s      0.002w      1 calls
| | Dipole Ints                     :      0.000u      0.000s      0.001w      1 calls
| | Compute Metric                  :      0.000u      0.000s      0.001w      1 calls
| | | (K|L)                         :      0.000u      0.000s      0.001w      1 calls
| | | | Libint2ERI::Libint2ERI      :      0.000u      0.000s      0.000w      1 calls
| | Sparsity                        :      0.000u      0.000s      0.000w      3 calls
| | Crude DF Ints                   :      0.000u      0.000s      0.004w      1 calls
| | | (mn|K) -> (ia|K)              :      0.000u      0.000s      0.004w      1 calls
| | | | Libint2ERI::Libint2ERI      :      0.000u      0.000s      0.002w      1 calls
| | Crude Pair Prescreening         :      0.000u      0.000s      0.002w      1 calls
| | Refined DF Ints                 :      0.017u      0.000s      0.004w      1 calls
| | | (mn|K) -> (ia|K)              :      0.017u      0.000s      0.004w      1 calls
| | | | Libint2ERI::Libint2ERI      :      0.017u      0.000s      0.001w      1 calls
| | Refined Pair Prescreening       :      0.000u      0.000s      0.003w      1 calls
| | PNO-LMP2 Iterations             :      0.017u      0.000s      0.009w      1 calls
| | DF Ints                         :      0.017u      0.000s      0.008w      1 calls
| | | (mn|K)->(ij|K)                :      0.000u      0.000s      0.004w      1 calls
| | | | Libint2ERI::Libint2ERI      :      0.000u      0.000s      0.001w      1 calls
| | | (mn|K)->(ab|K)                :      0.017u      0.000s      0.004w      1 calls
| | | | Libint2ERI::Libint2ERI      :      0.017u      0.000s      0.001w      1 calls
| | CC Integrals                    :      0.083u      0.000s      0.051w      1 calls
| | | DLPNO-CCSD: Setup Integrals   :      0.067u      0.000s      0.024w     10 calls
| | | DLPNO-CCSD: J_ij_kj Integrals :      0.017u      0.000s      0.020w     10 calls
| | | DLPNO-CCSD: K_ij_kj Integrals :      0.000u      0.000s      0.005w     10 calls
| | | DLPNO-CCSD: Contract Integrals:      0.000u      0.000s      0.001w     10 calls
| | PNO Overlaps                    :      0.000u      0.000s      0.001w      1 calls
| | LCCSD                           :      0.500u      0.000s      0.299w      1 calls
| | | DLPNO-CCSD: T1 Ints           :      0.067u      0.000s      0.034w     14 calls
| | | DLPNO-CCSD: T1 Fock           :      0.117u      0.000s      0.063w     14 calls
| | | DLPNO-CCSD: Compute R1        :      0.000u      0.000s      0.007w     14 calls
| | | DLPNO-CCSD: Compute R2        :      0.317u      0.000s      0.189w     14 calls
| | | | DLPNO-CCSD: beta            :      0.050u      0.000s      0.033w     14 calls
| | | | DLPNO-CCSD: gamma           :      0.000u      0.000s      0.012w     14 calls
| | | | DLPNO-CCSD: delta           :      0.033u      0.000s      0.014w     14 calls
| | | | DLPNO-CCSD: Fkj double tilde:      0.000u      0.000s      0.004w     14 calls
| Triples Sparsity                  :      0.000u      0.000s      0.000w      2 calls
| TNO transform                     :      0.000u      0.000s      0.009w      3 calls
| LCCSD(T0)                         :      0.250u      0.000s      0.145w      3 calls
| | LCCSD(T0): Setup Integrals      :      0.067u      0.000s      0.047w     48 calls
| | LCCSD(T0): Contract Integrals   :      0.117u      0.000s      0.068w     48 calls
| | LCCSD(T0): Form W               :      0.050u      0.000s      0.021w     48 calls
| | LCCSD(T0): Form V               :      0.000u      0.000s      0.001w     48 calls
| Sort Triplets                     :      0.000u      0.000s      0.000w      1 calls
| LCCSD(T) Iterations               :      0.100u      0.000s      0.057w      1 calls
| | Compute (T) Energy              :      0.000u      0.000s      0.004w      4 calls
DLPNO-CCSD: Compute R1              :      0.017u      0.000s      0.027w     50 calls
DLPNO-CCSD: Compute R2              :      1.183u      0.000s      0.713w     50 calls
| DLPNO-CCSD: beta                  :      0.250u      0.000s      0.122w     50 calls
| DLPNO-CCSD: gamma                 :      0.033u      0.000s      0.044w     50 calls
| DLPNO-CCSD: delta                 :      0.067u      0.000s      0.051w     50 calls
| DLPNO-CCSD: Fkj double tilde      :      0.017u      0.000s      0.015w     50 calls

**************************************************************************************

Host: b6-10

Timers On : Tue Aug 13 23:27:51 2024
Timers Off: Tue Aug 13 23:27:54 2024

Wall Time:        2.74 seconds

                                                       Time (seconds)
Module                                       User      System        Wall        Calls
DFH: sparsity prep                  :      0.017u      0.000s      0.005w      1 calls
Libint2ERI::Libint2ERI              :      0.017u      0.000s      0.015w      9 calls
DFH: initialize()                   :      0.000u      0.000s      0.009w      1 calls
DFH: AO Construction                :      0.000u      0.000s      0.002w      1 calls
DFH: AO-Met. Contraction            :      0.000u      0.000s      0.001w      1 calls
HF: Form core H                     :      0.000u      0.000s      0.001w      1 calls
HF: Form S/X                        :      0.000u      0.000s      0.000w      1 calls
HF: Guess                           :      0.017u      0.000s      0.016w      1 calls
SAD Guess                           :      0.017u      0.000s      0.015w      1 calls
HF: Form G                          :      0.000u      0.000s      0.002w     11 calls
JK: D                               :      0.000u      0.000s      0.000w     11 calls
JK: USO2AO                          :      0.000u      0.000s      0.000w     11 calls
JK: JK                              :      0.000u      0.000s      0.002w     11 calls
DFH: compute_JK()                   :      0.000u      0.000s      0.002w     11 calls
DFH: Grabbing AOs                   :      0.000u      0.000s      0.000w     11 calls
DFH: compute_J                      :      0.000u      0.000s      0.000w     11 calls
DFH: compute_K                      :      0.000u      0.000s      0.001w     11 calls
JK: AO2USO                          :      0.000u      0.000s      0.000w     11 calls
HF: Form F                          :      0.000u      0.000s      0.000w     11 calls
HF: Form D                          :      0.000u      0.000s      0.000w     11 calls
HF: DIIS                            :      0.167u      0.033s      0.144w     10 calls
HF: Form C                          :      0.000u      0.000s      0.002w     10 calls
DLPNO-CCSD(T)                       :      1.000u      0.000s      0.605w      1 calls
DLPNO-CCSD                          :      0.650u      0.000s      0.392w      1 calls
Setup Orbitals                      :      0.000u      0.000s      0.001w      1 calls
Local MOs                           :      0.000u      0.000s      0.001w      1 calls
Projected AOs                       :      0.000u      0.000s      0.000w      1 calls
Overlap Ints                        :      0.017u      0.000s      0.003w      1 calls
Construct Grid                      :      0.000u      0.000s      0.001w      1 calls
build grid                          :      0.000u      0.000s      0.001w      1 calls
post-process grid                   :      0.000u      0.000s      0.000w      1 calls
Integration                         :      0.017u      0.000s      0.002w      1 calls
Dipole Ints                         :      0.000u      0.000s      0.001w      1 calls
Compute Metric                      :      0.000u      0.000s      0.001w      1 calls
(K|L)                               :      0.000u      0.000s      0.001w      1 calls
Sparsity                            :      0.000u      0.000s      0.000w      3 calls
Crude DF Ints                       :      0.000u      0.000s      0.005w      1 calls
(mn|K) -> (ia|K)                    :      0.017u      0.000s      0.009w      2 calls
Crude Pair Prescreening             :      0.000u      0.000s      0.002w      1 calls
Refined DF Ints                     :      0.017u      0.000s      0.004w      1 calls
Refined Pair Prescreening           :      0.000u      0.000s      0.003w      1 calls
PNO-LMP2 Iterations                 :      0.017u      0.000s      0.009w      1 calls
DF Ints                             :      0.017u      0.000s      0.008w      1 calls
(mn|K)->(ij|K)                      :      0.000u      0.000s      0.004w      1 calls
(mn|K)->(ab|K)                      :      0.017u      0.000s      0.004w      1 calls
CC Integrals                        :      0.083u      0.000s      0.051w      1 calls
DLPNO-CCSD: Setup Integrals         :      0.050u      0.000s      0.024w     10 calls
DLPNO-CCSD: J_ij_kj Integrals       :      0.017u      0.000s      0.020w     10 calls
DLPNO-CCSD: K_ij_kj Integrals       :      0.017u      0.000s      0.005w     10 calls
DLPNO-CCSD: Contract Integrals      :      0.000u      0.000s      0.001w     10 calls
PNO Overlaps                        :      0.000u      0.000s      0.001w      1 calls
LCCSD                               :      0.500u      0.000s      0.303w      1 calls
DLPNO-CCSD: T1 Ints                 :      0.033u      0.000s      0.034w     14 calls
DLPNO-CCSD: T1 Fock                 :      0.133u      0.000s      0.064w     14 calls
DLPNO-CCSD: Compute R1              :      0.033u      0.000s      0.034w     64 calls
DLPNO-CCSD: Compute R2              :      1.500u      0.000s      0.911w     64 calls
DLPNO-CCSD: beta                    :      0.233u      0.000s      0.156w     64 calls
DLPNO-CCSD: gamma                   :      0.100u      0.000s      0.058w     64 calls
DLPNO-CCSD: delta                   :      0.133u      0.000s      0.066w     64 calls
DLPNO-CCSD: Fkj double tilde        :      0.017u      0.000s      0.020w     64 calls
Triples Sparsity                    :      0.000u      0.000s      0.000w      2 calls
TNO transform                       :      0.033u      0.000s      0.009w      3 calls
LCCSD(T0)                           :      0.233u      0.000s      0.146w      3 calls
LCCSD(T0): Setup Integrals          :      0.033u      0.000s      0.047w     48 calls
LCCSD(T0): Contract Integrals       :      0.117u      0.000s      0.068w     48 calls
LCCSD(T0): Form W                   :      0.067u      0.000s      0.021w     48 calls
LCCSD(T0): Form V                   :      0.017u      0.000s      0.001w     48 calls
Sort Triplets                       :      0.000u      0.000s      0.000w      1 calls
LCCSD(T) Iterations                 :      0.083u      0.000s      0.057w      1 calls
Compute (T) Energy                  :      0.000u      0.000s      0.004w      4 calls

--------------------------------------------------------------------------------------
DFH: sparsity prep                  :      0.017u      0.000s      0.005w      1 calls
| Libint2ERI::Libint2ERI            :      0.017u      0.000s      0.004w      1 calls
DFH: initialize()                   :      0.000u      0.000s      0.009w      1 calls
| Libint2ERI::Libint2ERI            :      0.000u      0.000s      0.002w      2 calls
| DFH: AO Construction              :      0.000u      0.000s      0.002w      1 calls
| DFH: AO-Met. Contraction          :      0.000u      0.000s      0.001w      1 calls
HF: Form core H                     :      0.000u      0.000s      0.001w      1 calls
HF: Form S/X                        :      0.000u      0.000s      0.000w      1 calls
HF: Guess                           :      0.017u      0.000s      0.016w      1 calls
| SAD Guess                         :      0.017u      0.000s      0.015w      1 calls
HF: Form G                          :      0.000u      0.000s      0.002w     11 calls
| JK: D                             :      0.000u      0.000s      0.000w     11 calls
| JK: USO2AO                        :      0.000u      0.000s      0.000w     11 calls
| JK: JK                            :      0.000u      0.000s      0.002w     11 calls
| | DFH: compute_JK()               :      0.000u      0.000s      0.002w     11 calls
| | | DFH: Grabbing AOs             :      0.000u      0.000s      0.000w     11 calls
| | | DFH: compute_J                :      0.000u      0.000s      0.000w     11 calls
| | | DFH: compute_K                :      0.000u      0.000s      0.001w     11 calls
| JK: AO2USO                        :      0.000u      0.000s      0.000w     11 calls
HF: Form F                          :      0.000u      0.000s      0.000w     11 calls
HF: Form D                          :      0.000u      0.000s      0.000w     11 calls
HF: DIIS                            :      0.167u      0.033s      0.144w     10 calls
HF: Form C                          :      0.000u      0.000s      0.002w     10 calls
Libint2ERI::Libint2ERI              :      0.000u      0.000s      0.003w      1 calls
DLPNO-CCSD(T)                       :      1.000u      0.000s      0.605w      1 calls
| DLPNO-CCSD                        :      0.650u      0.000s      0.392w      1 calls
| | Setup Orbitals                  :      0.000u      0.000s      0.001w      1 calls
| | | Local MOs                     :      0.000u      0.000s      0.001w      1 calls
| | | Projected AOs                 :      0.000u      0.000s      0.000w      1 calls
| | Overlap Ints                    :      0.017u      0.000s      0.003w      1 calls
| | | Construct Grid                :      0.000u      0.000s      0.001w      1 calls
| | | | build grid                  :      0.000u      0.000s      0.001w      1 calls
| | | | post-process grid           :      0.000u      0.000s      0.000w      1 calls
| | | Integration                   :      0.017u      0.000s      0.002w      1 calls
| | Dipole Ints                     :      0.000u      0.000s      0.001w      1 calls
| | Compute Metric                  :      0.000u      0.000s      0.001w      1 calls
| | | (K|L)                         :      0.000u      0.000s      0.001w      1 calls
| | | | Libint2ERI::Libint2ERI      :      0.000u      0.000s      0.000w      1 calls
| | Sparsity                        :      0.000u      0.000s      0.000w      3 calls
| | Crude DF Ints                   :      0.000u      0.000s      0.005w      1 calls
| | | (mn|K) -> (ia|K)              :      0.000u      0.000s      0.005w      1 calls
| | | | Libint2ERI::Libint2ERI      :      0.000u      0.000s      0.002w      1 calls
| | Crude Pair Prescreening         :      0.000u      0.000s      0.002w      1 calls
| | Refined DF Ints                 :      0.017u      0.000s      0.004w      1 calls
| | | (mn|K) -> (ia|K)              :      0.017u      0.000s      0.004w      1 calls
| | | | Libint2ERI::Libint2ERI      :      0.000u      0.000s      0.001w      1 calls
| | Refined Pair Prescreening       :      0.000u      0.000s      0.003w      1 calls
| | PNO-LMP2 Iterations             :      0.017u      0.000s      0.009w      1 calls
| | DF Ints                         :      0.017u      0.000s      0.008w      1 calls
| | | (mn|K)->(ij|K)                :      0.000u      0.000s      0.004w      1 calls
| | | | Libint2ERI::Libint2ERI      :      0.000u      0.000s      0.001w      1 calls
| | | (mn|K)->(ab|K)                :      0.017u      0.000s      0.004w      1 calls
| | | | Libint2ERI::Libint2ERI      :      0.000u      0.000s      0.001w      1 calls
| | CC Integrals                    :      0.083u      0.000s      0.051w      1 calls
| | | DLPNO-CCSD: Setup Integrals   :      0.050u      0.000s      0.024w     10 calls
| | | DLPNO-CCSD: J_ij_kj Integrals :      0.017u      0.000s      0.020w     10 calls
| | | DLPNO-CCSD: K_ij_kj Integrals :      0.017u      0.000s      0.005w     10 calls
| | | DLPNO-CCSD: Contract Integrals:      0.000u      0.000s      0.001w     10 calls
| | PNO Overlaps                    :      0.000u      0.000s      0.001w      1 calls
| | LCCSD                           :      0.500u      0.000s      0.303w      1 calls
| | | DLPNO-CCSD: T1 Ints           :      0.033u      0.000s      0.034w     14 calls
| | | DLPNO-CCSD: T1 Fock           :      0.133u      0.000s      0.064w     14 calls
| | | DLPNO-CCSD: Compute R1        :      0.000u      0.000s      0.007w     14 calls
| | | DLPNO-CCSD: Compute R2        :      0.300u      0.000s      0.192w     14 calls
| | | | DLPNO-CCSD: beta            :      0.050u      0.000s      0.033w     14 calls
| | | | DLPNO-CCSD: gamma           :      0.017u      0.000s      0.012w     14 calls
| | | | DLPNO-CCSD: delta           :      0.033u      0.000s      0.014w     14 calls
| | | | DLPNO-CCSD: Fkj double tilde:      0.000u      0.000s      0.004w     14 calls
| Triples Sparsity                  :      0.000u      0.000s      0.000w      2 calls
[...]
| | | DLPNO-CCSD: T1 Fock           :      0.483u      0.033s      0.010w     12 calls
| | | DLPNO-CCSD: Compute R1        :      0.100u      0.000s      0.001w     12 calls
| | | DLPNO-CCSD: Compute R2        :      1.133u      0.000s      0.022w     12 calls
| | | | DLPNO-CCSD: beta            :      0.133u      0.000s      0.003w     12 calls
| | | | DLPNO-CCSD: gamma           :      0.067u      0.000s      0.001w     12 calls
| | | | DLPNO-CCSD: delta           :      0.050u      0.000s      0.001w     12 calls
| | | | DLPNO-CCSD: Fkj double tilde:      0.017u      0.000s      0.001w     12 calls
| Triples Sparsity                  :      0.017u      0.000s      0.000w      2 calls
| TNO transform                     :      0.050u      0.000s      0.001w      3 calls
| LCCSD(T0)                         :      0.700u      0.000s      0.013w      3 calls
| | LCCSD(T0): Setup Integrals      :      0.067u      0.000s      0.002w      3 calls
| | LCCSD(T0): Contract Integrals   :      0.017u      0.000s      0.002w      3 calls
| | LCCSD(T0): Form W               :      0.150u      0.000s      0.001w      3 calls
| | LCCSD(T0): Form V               :      0.000u      0.000s      0.000w      3 calls
| Sort Triplets                     :      0.000u      0.000s      0.000w      1 calls
| LCCSD(T) Iterations               :      0.517u      0.000s      0.010w      1 calls
| | Compute (T) Energy              :      0.017u      0.000s      0.001w      5 calls
DLPNO-CCSD: T1 Ints                 :      0.283u      0.000s      0.006w     17 calls
DLPNO-CCSD: T1 Fock                 :      0.633u      0.017s      0.013w     17 calls
DLPNO-CCSD: Compute R1              :      0.150u      0.000s      0.002w     17 calls
DLPNO-CCSD: Compute R2              :      1.617u      0.050s      0.030w     17 calls
| DLPNO-CCSD: beta                  :      0.200u      0.050s      0.004w     17 calls
| DLPNO-CCSD: gamma                 :      0.083u      0.000s      0.002w     17 calls
| DLPNO-CCSD: delta                 :      0.183u      0.000s      0.002w     17 calls
| DLPNO-CCSD: Fkj double tilde      :      0.000u      0.000s      0.001w     17 calls

**************************************************************************************

Host: b6-9

Timers On : Mon Aug 26 14:14:20 2024
Timers Off: Mon Aug 26 14:14:23 2024

Wall Time:        3.11 seconds

                                                       Time (seconds)
Module                                       User      System        Wall        Calls
DFH: sparsity prep                  :      0.367u      0.033s      0.009w      2 calls
Libint2ERI::Libint2ERI              :      1.217u      0.067s      0.025w    106 calls
DFH: initialize()                   :      1.200u      0.317s      0.034w      2 calls
DFH: AO Construction                :      0.050u      0.000s      0.001w      2 calls
DFH: AO-Met. Contraction            :      0.017u      0.017s      0.001w      2 calls
HF: Form core H                     :      1.167u      0.050s      0.024w      2 calls
HF: Form S/X                        :      0.033u      0.000s      0.000w      2 calls
HF: Guess                           :      4.367u      0.133s      0.088w      2 calls
SAD Guess                           :      4.300u      0.133s      0.087w      2 calls
HF: Form G                          :      0.183u      0.000s      0.004w     22 calls
JK: D                               :      0.017u      0.000s      0.001w     22 calls
JK: USO2AO                          :      0.000u      0.000s      0.000w     22 calls
JK: JK                              :      0.167u      0.000s      0.003w     22 calls
DFH: compute_JK()                   :      0.167u      0.000s      0.003w     22 calls
DFH: Grabbing AOs                   :      0.000u      0.000s      0.000w     22 calls
DFH: compute_J                      :      0.017u      0.000s      0.001w     22 calls
DFH: compute_K                      :      0.100u      0.000s      0.001w     22 calls
JK: AO2USO                          :      0.000u      0.000s      0.000w     22 calls
HF: Form F                          :      0.017u      0.000s      0.000w     22 calls
HF: Form D                          :      0.017u      0.000s      0.001w     22 calls
HF: DIIS                            :     11.633u      0.383s      0.247w     20 calls
HF: Form C                          :      0.317u      0.000s      0.007w     20 calls
ccenergy                            :     53.833u      1.467s      1.054w      1 calls
F build                             :      0.200u      0.000s      0.004w      9 calls
Wmbej build                         :      0.717u      0.017s      0.014w      9 calls
C->Wmbej                            :      0.000u      0.000s      0.001w      9 calls
F->Wmbej                            :      0.317u      0.000s      0.009w      9 calls
E->Wmbej                            :      0.250u      0.000s      0.001w      9 calls
X->Wmbej                            :      0.133u      0.000s      0.003w      9 calls
Z                                   :      0.033u      0.000s      0.001w      9 calls
T2 Build                            :      1.283u      0.000s      0.025w      9 calls
BT2                                 :      0.350u      0.000s      0.007w      9 calls
ABCD:new                            :      0.350u      0.000s      0.007w      9 calls
ABCD:S                              :      0.017u      0.000s      0.001w      9 calls
ABCD:A                              :      0.117u      0.000s      0.001w      9 calls
ABCD:axpy                           :      0.183u      0.000s      0.004w      9 calls
FT2                                 :      0.067u      0.000s      0.002w      9 calls
WmbejT2                             :      0.200u      0.000s      0.004w      9 calls
CT2                                 :      0.300u      0.000s      0.006w      9 calls
T3_RHF                              :     16.383u      0.267s      0.308w   1125 calls
X3*Wmnie                            :      0.417u      0.000s      0.028w   1125 calls
X3_sort                             :      2.817u      0.017s      0.036w   1125 calls
X3*Wamef                            :      1.000u      0.050s      0.031w   1125 calls
DLPNO-CCSD(T)                       :     10.067u      0.217s      0.194w      1 calls
DLPNO-CCSD                          :      8.583u      0.217s      0.166w      1 calls
Setup Orbitals                      :      0.067u      0.000s      0.001w      1 calls
Local MOs                           :      0.067u      0.000s      0.001w      1 calls
Projected AOs                       :      0.000u      0.000s      0.000w      1 calls
Overlap Ints                        :      0.100u      0.000s      0.002w      1 calls
Construct Grid                      :      0.067u      0.000s      0.001w      1 calls
build grid                          :      0.050u      0.000s      0.001w      1 calls
post-process grid                   :      0.017u      0.000s      0.000w      1 calls
Integration                         :      0.017u      0.000s      0.000w      1 calls
Dipole Ints                         :      0.100u      0.017s      0.002w      1 calls
Compute Metric                      :      0.100u      0.000s      0.002w      1 calls
(K|L)                               :      0.100u      0.000s      0.002w      1 calls
Sparsity                            :      0.017u      0.000s      0.001w      3 calls
Crude DF Ints                       :      1.267u      0.033s      0.024w      1 calls
(mn|K) -> (ia|K)                    :      2.517u      0.067s      0.048w      2 calls
Crude Pair Prescreening             :      0.017u      0.000s      0.000w      1 calls
Refined DF Ints                     :      1.283u      0.033s      0.025w      1 calls
Refined Pair Prescreening           :      0.017u      0.000s      0.000w      1 calls
PNO-LMP2 Iterations                 :      0.383u      0.017s      0.007w      1 calls
DF Ints                             :      2.533u      0.067s      0.049w      1 calls
(mn|K)->(ij|K)                      :      1.267u      0.033s      0.025w      1 calls
(mn|K)->(ab|K)                      :      1.233u      0.033s      0.024w      1 calls
CC Integrals                        :      0.400u      0.017s      0.008w      1 calls
DLPNO-CCSD: Setup Integrals         :      0.133u      0.000s      0.003w      1 calls
DLPNO-CCSD: J_ij_kj Integrals       :      0.100u      0.000s      0.002w      1 calls
DLPNO-CCSD: K_ij_kj Integrals       :      0.033u      0.000s      0.001w      1 calls
DLPNO-CCSD: Contract Integrals      :      0.017u      0.000s      0.000w      1 calls
PNO Overlaps                        :      0.017u      0.000s      0.000w      1 calls
LCCSD                               :      2.283u      0.033s      0.044w      1 calls
DLPNO-CCSD: T1 Ints                 :      0.950u      0.050s      0.019w     55 calls
DLPNO-CCSD: T1 Fock                 :      2.350u      0.017s      0.044w     55 calls
DLPNO-CCSD: Compute R1              :      0.400u      0.000s      0.008w     55 calls
DLPNO-CCSD: Compute R2              :      5.267u      0.117s      0.103w     55 calls
DLPNO-CCSD: beta                    :      0.633u      0.050s      0.014w     55 calls
DLPNO-CCSD: gamma                   :      0.300u      0.000s      0.006w     55 calls
DLPNO-CCSD: delta                   :      0.333u      0.000s      0.007w     55 calls
DLPNO-CCSD: Fkj double tilde        :      0.083u      0.000s      0.003w     55 calls
Triples Sparsity                    :      0.000u      0.000s      0.000w      2 calls
TNO transform                       :      0.067u      0.000s      0.001w      3 calls
LCCSD(T0)                           :      0.733u      0.000s      0.014w      3 calls
LCCSD(T0): Setup Integrals          :      0.133u      0.000s      0.004w      3 calls
LCCSD(T0): Contract Integrals       :      0.350u      0.000s      0.006w      3 calls
LCCSD(T0): Form W                   :      0.100u      0.000s      0.002w      3 calls
LCCSD(T0): Form V                   :      0.000u      0.000s      0.000w      3 calls
Sort Triplets                       :      0.000u      0.000s      0.000w      1 calls
LCCSD(T) Iterations                 :      0.667u      0.000s      0.013w      1 calls
Compute (T) Energy                  :      0.033u      0.000s      0.001w      6 calls

--------------------------------------------------------------------------------------
DFH: sparsity prep                  :      0.367u      0.033s      0.009w      2 calls
| Libint2ERI::Libint2ERI            :      0.267u      0.033s      0.006w      2 calls
DFH: initialize()                   :      1.200u      0.317s      0.034w      2 calls
| Libint2ERI::Libint2ERI            :      0.200u      0.000s      0.005w     66 calls
| DFH: AO Construction              :      0.050u      0.000s      0.001w      2 calls
| DFH: AO-Met. Contraction          :      0.017u      0.017s      0.001w      2 calls
HF: Form core H                     :      1.167u      0.050s      0.024w      2 calls
HF: Form S/X                        :      0.033u      0.000s      0.000w      2 calls
HF: Guess                           :      4.367u      0.133s      0.088w      2 calls
| SAD Guess                         :      4.300u      0.133s      0.087w      2 calls
HF: Form G                          :      0.183u      0.000s      0.004w     22 calls
| JK: D                             :      0.017u      0.000s      0.001w     22 calls
| JK: USO2AO                        :      0.000u      0.000s      0.000w     22 calls
| JK: JK                            :      0.167u      0.000s      0.003w     22 calls
| | DFH: compute_JK()               :      0.167u      0.000s      0.003w     22 calls
| | | DFH: Grabbing AOs             :      0.000u      0.000s      0.000w     22 calls
| | | DFH: compute_J                :      0.017u      0.000s      0.001w     22 calls
| | | DFH: compute_K                :      0.100u      0.000s      0.001w     22 calls
| JK: AO2USO                        :      0.000u      0.000s      0.000w     22 calls
HF: Form F                          :      0.017u      0.000s      0.000w     22 calls
HF: Form D                          :      0.017u      0.000s      0.001w     22 calls
HF: DIIS                            :     11.633u      0.383s      0.247w     20 calls
HF: Form C                          :      0.317u      0.000s      0.007w     20 calls
Libint2ERI::Libint2ERI              :      0.317u      0.033s      0.006w      2 calls
ccenergy                            :     53.833u      1.467s      1.054w      1 calls
| F build                           :      0.200u      0.000s      0.004w      9 calls
| Wmbej build                       :      0.717u      0.017s      0.014w      9 calls
| | C->Wmbej                        :      0.000u      0.000s      0.001w      9 calls
| | F->Wmbej                        :      0.317u      0.000s      0.009w      9 calls
| | E->Wmbej                        :      0.250u      0.000s      0.001w      9 calls
| | X->Wmbej                        :      0.133u      0.000s      0.003w      9 calls
| Z                                 :      0.033u      0.000s      0.001w      9 calls
| T2 Build                          :      1.283u      0.000s      0.025w      9 calls
| | BT2                             :      0.350u      0.000s      0.007w      9 calls
| | | ABCD:new                      :      0.350u      0.000s      0.007w      9 calls
| | | | ABCD:S                      :      0.017u      0.000s      0.001w      9 calls
| | | | ABCD:A                      :      0.117u      0.000s      0.001w      9 calls
| | | | ABCD:axpy                   :      0.183u      0.000s      0.004w      9 calls
| | FT2                             :      0.067u      0.000s      0.002w      9 calls
| | WmbejT2                         :      0.200u      0.000s      0.004w      9 calls
| | CT2                             :      0.300u      0.000s      0.006w      9 calls
| T3_RHF                            :     16.383u      0.267s      0.308w   1125 calls
| X3*Wmnie                          :      0.417u      0.000s      0.028w   1125 calls
| X3_sort                           :      2.817u      0.017s      0.036w   1125 calls
| X3*Wamef                          :      1.000u      0.050s      0.031w   1125 calls
DLPNO-CCSD(T)                       :     10.067u      0.217s      0.194w      1 calls
| DLPNO-CCSD                        :      8.583u      0.217s      0.166w      1 calls
| | Setup Orbitals                  :      0.067u      0.000s      0.001w      1 calls
| | | Local MOs                     :      0.067u      0.000s      0.001w      1 calls
| | | Projected AOs                 :      0.000u      0.000s      0.000w      1 calls
| | Overlap Ints                    :      0.100u      0.000s      0.002w      1 calls
| | | Construct Grid                :      0.067u      0.000s      0.001w      1 calls
| | | | build grid                  :      0.050u      0.000s      0.001w      1 calls
| | | | post-process grid           :      0.017u      0.000s      0.000w      1 calls
| | | Integration                   :      0.017u      0.000s      0.000w      1 calls
| | Dipole Ints                     :      0.100u      0.017s      0.002w      1 calls
| | Compute Metric                  :      0.100u      0.000s      0.002w      1 calls
| | | (K|L)                         :      0.100u      0.000s      0.002w      1 calls
| | | | Libint2ERI::Libint2ERI      :      0.033u      0.000s      0.000w     32 calls
| | Sparsity                        :      0.017u      0.000s      0.001w      3 calls
| | Crude DF Ints                   :      1.267u      0.033s      0.024w      1 calls
| | | (mn|K) -> (ia|K)              :      1.250u      0.033s      0.024w      1 calls
| | | | Libint2ERI::Libint2ERI      :      0.100u      0.000s      0.002w      1 calls
| | Crude Pair Prescreening         :      0.017u      0.000s      0.000w      1 calls
| | Refined DF Ints                 :      1.283u      0.033s      0.025w      1 calls
| | | (mn|K) -> (ia|K)              :      1.267u      0.033s      0.024w      1 calls
| | | | Libint2ERI::Libint2ERI      :      0.100u      0.000s      0.002w      1 calls
| | Refined Pair Prescreening       :      0.017u      0.000s      0.000w      1 calls
| | PNO-LMP2 Iterations             :      0.383u      0.017s      0.007w      1 calls
| | DF Ints                         :      2.533u      0.067s      0.049w      1 calls
| | | (mn|K)->(ij|K)                :      1.267u      0.033s      0.025w      1 calls
| | | | Libint2ERI::Libint2ERI      :      0.100u      0.000s      0.002w      1 calls
| | | (mn|K)->(ab|K)                :      1.233u      0.033s      0.024w      1 calls
| | | | Libint2ERI::Libint2ERI      :      0.100u      0.000s      0.002w      1 calls
| | CC Integrals                    :      0.400u      0.017s      0.008w      1 calls
| | | DLPNO-CCSD: Setup Integrals   :      0.133u      0.000s      0.003w      1 calls
| | | DLPNO-CCSD: J_ij_kj Integrals :      0.100u      0.000s      0.002w      1 calls
| | | DLPNO-CCSD: K_ij_kj Integrals :      0.033u      0.000s      0.001w      1 calls
| | | DLPNO-CCSD: Contract Integrals:      0.017u      0.000s      0.000w      1 calls
| | PNO Overlaps                    :      0.017u      0.000s      0.000w      1 calls
| | LCCSD                           :      2.283u      0.033s      0.044w      1 calls
| | | DLPNO-CCSD: T1 Ints           :      0.183u      0.000s      0.004w     11 calls
| | | DLPNO-CCSD: T1 Fock           :      0.533u      0.000s      0.009w     11 calls
| | | DLPNO-CCSD: Compute R1        :      0.067u      0.000s      0.001w     11 calls
| | | DLPNO-CCSD: Compute R2        :      1.083u      0.033s      0.021w     11 calls
| | | | DLPNO-CCSD: beta            :      0.133u      0.017s      0.003w     11 calls
| | | | DLPNO-CCSD: gamma           :      0.033u      0.000s      0.001w     11 calls
| | | | DLPNO-CCSD: delta           :      0.117u      0.000s      0.001w     11 calls
| | | | DLPNO-CCSD: Fkj double tilde:      0.000u      0.000s      0.001w     11 calls
| Triples Sparsity                  :      0.000u      0.000s      0.000w      2 calls
| TNO transform                     :      0.067u      0.000s      0.001w      3 calls
| LCCSD(T0)                         :      0.733u      0.000s      0.014w      3 calls
| | LCCSD(T0): Setup Integrals      :      0.133u      0.000s      0.004w      3 calls
| | LCCSD(T0): Contract Integrals   :      0.350u      0.000s      0.006w      3 calls
| | LCCSD(T0): Form W               :      0.100u      0.000s      0.002w      3 calls
| | LCCSD(T0): Form V               :      0.000u      0.000s      0.000w      3 calls
| Sort Triplets                     :      0.000u      0.000s      0.000w      1 calls
| LCCSD(T) Iterations               :      0.667u      0.000s      0.013w      1 calls
| | Compute (T) Energy              :      0.033u      0.000s      0.001w      6 calls
DLPNO-CCSD: T1 Ints                 :      0.767u      0.050s      0.015w     44 calls
DLPNO-CCSD: T1 Fock                 :      1.817u      0.017s      0.035w     44 calls
DLPNO-CCSD: Compute R1              :      0.333u      0.000s      0.006w     44 calls
DLPNO-CCSD: Compute R2              :      4.183u      0.083s      0.082w     44 calls
| DLPNO-CCSD: beta                  :      0.500u      0.033s      0.011w     44 calls
| DLPNO-CCSD: gamma                 :      0.267u      0.000s      0.005w     44 calls
| DLPNO-CCSD: delta                 :      0.217u      0.000s      0.006w     44 calls
| DLPNO-CCSD: Fkj double tilde      :      0.083u      0.000s      0.002w     44 calls

**************************************************************************************
