
Host: b6-10

Timers On : Tue Aug 13 22:39:23 2024
Timers Off: Tue Aug 13 22:39:24 2024

Wall Time:        1.66 seconds

                                                       Time (seconds)
Module                                       User      System        Wall        Calls
DFH: sparsity prep                  :      0.000u      0.017s      0.005w      1 calls
Libint2ERI::Libint2ERI              :      0.033u      0.017s      0.016w      9 calls
DFH: initialize()                   :      0.017u      0.000s      0.009w      1 calls
DFH: AO Construction                :      0.017u      0.000s      0.002w      1 calls
DFH: AO-Met. Contraction            :      0.000u      0.000s      0.001w      1 calls
HF: Form core H                     :      0.000u      0.000s      0.001w      1 calls
HF: Form S/X                        :      0.000u      0.000s      0.000w      1 calls
HF: Guess                           :      0.017u      0.000s      0.016w      1 calls
SAD Guess                           :      0.017u      0.000s      0.015w      1 calls
HF: Form G                          :      0.000u      0.000s      0.002w     11 calls
JK: D                               :      0.000u      0.000s      0.000w     11 calls
JK: USO2AO                          :      0.000u      0.000s      0.000w     11 calls
JK: JK                              :      0.000u      0.000s      0.002w     11 calls
DFH: compute_JK()                   :      0.000u      0.000s      0.002w     11 calls
DFH: Grabbing AOs                   :      0.000u      0.000s      0.000w     11 calls
DFH: compute_J                      :      0.000u      0.000s      0.000w     11 calls
DFH: compute_K                      :      0.000u      0.000s      0.001w     11 calls
JK: AO2USO                          :      0.000u      0.000s      0.000w     11 calls
HF: Form F                          :      0.000u      0.000s      0.000w     11 calls
HF: Form D                          :      0.000u      0.000s      0.000w     11 calls
HF: DIIS                            :      0.200u      0.050s      0.208w     10 calls
HF: Form C                          :      0.000u      0.000s      0.002w     10 calls
DLPNO-CCSD(T)                       :      1.000u      0.000s      0.601w      1 calls
DLPNO-CCSD                          :      0.650u      0.000s      0.391w      1 calls
Setup Orbitals                      :      0.017u      0.000s      0.001w      1 calls
Local MOs                           :      0.017u      0.000s      0.001w      1 calls
Projected AOs                       :      0.000u      0.000s      0.000w      1 calls
Overlap Ints                        :      0.000u      0.000s      0.003w      1 calls
Construct Grid                      :      0.000u      0.000s      0.001w      1 calls
build grid                          :      0.000u      0.000s      0.001w      1 calls
post-process grid                   :      0.000u      0.000s      0.000w      1 calls
Integration                         :      0.000u      0.000s      0.002w      1 calls
Dipole Ints                         :      0.000u      0.000s      0.001w      1 calls
Compute Metric                      :      0.000u      0.000s      0.001w      1 calls
(K|L)                               :      0.000u      0.000s      0.001w      1 calls
Sparsity                            :      0.000u      0.000s      0.000w      3 calls
Crude DF Ints                       :      0.017u      0.000s      0.005w      1 calls
(mn|K) -> (ia|K)                    :      0.017u      0.000s      0.009w      2 calls
Crude Pair Prescreening             :      0.000u      0.000s      0.002w      1 calls
Refined DF Ints                     :      0.000u      0.000s      0.004w      1 calls
Refined Pair Prescreening           :      0.000u      0.000s      0.003w      1 calls
PNO-LMP2 Iterations                 :      0.017u      0.000s      0.009w      1 calls
DF Ints                             :      0.017u      0.000s      0.008w      1 calls
(mn|K)->(ij|K)                      :      0.017u      0.000s      0.004w      1 calls
(mn|K)->(ab|K)                      :      0.000u      0.000s      0.004w      1 calls
CC Integrals                        :      0.083u      0.000s      0.051w      1 calls
DLPNO-CCSD: Setup Integrals         :      0.050u      0.000s      0.024w     10 calls
DLPNO-CCSD: J_ij_kj Integrals       :      0.033u      0.000s      0.020w     10 calls
DLPNO-CCSD: K_ij_kj Integrals       :      0.000u      0.000s      0.005w     10 calls
DLPNO-CCSD: Contract Integrals      :      0.000u      0.000s      0.001w     10 calls
PNO Overlaps                        :      0.000u      0.000s      0.001w      1 calls
LCCSD                               :      0.500u      0.000s      0.301w      1 calls
DLPNO-CCSD: T1 Ints                 :      0.050u      0.000s      0.034w     14 calls
DLPNO-CCSD: T1 Fock                 :      0.100u      0.000s      0.064w     14 calls
DLPNO-CCSD: Compute R1              :      0.067u      0.000s      0.036w     64 calls
DLPNO-CCSD: Compute R2              :      0.333u      0.000s      0.191w     14 calls
DLPNO-CCSD: beta                    :      0.067u      0.000s      0.034w     14 calls
DLPNO-CCSD: gamma                   :      0.000u      0.000s      0.012w     14 calls
DLPNO-CCSD: delta                   :      0.033u      0.000s      0.014w     14 calls
DLPNO-CCSD: Fkj double tilde        :      0.017u      0.000s      0.004w     14 calls
Triples Sparsity                    :      0.000u      0.000s      0.000w      2 calls
TNO transform                       :      0.017u      0.000s      0.009w      3 calls
LCCSD(T0)                           :      0.250u      0.000s      0.145w      3 calls
LCCSD(T0): Setup Integrals          :      0.067u      0.000s      0.047w     48 calls
LCCSD(T0): Contract Integrals       :      0.133u      0.000s      0.067w     48 calls
LCCSD(T0): Form W                   :      0.000u      0.000s      0.021w     48 calls
LCCSD(T0): Form V                   :      0.000u      0.000s      0.001w     48 calls
Sort Triplets                       :      0.000u      0.000s      0.000w      1 calls
LCCSD(T) Iterations                 :      0.083u      0.000s      0.056w      1 calls
Compute (T) Energy                  :      0.000u      0.000s      0.004w      4 calls

--------------------------------------------------------------------------------------
DFH: sparsity prep                  :      0.000u      0.017s      0.005w      1 calls
| Libint2ERI::Libint2ERI            :      0.000u      0.017s      0.004w      1 calls
DFH: initialize()                   :      0.017u      0.000s      0.009w      1 calls
| Libint2ERI::Libint2ERI            :      0.000u      0.000s      0.002w      2 calls
| DFH: AO Construction              :      0.017u      0.000s      0.002w      1 calls
| DFH: AO-Met. Contraction          :      0.000u      0.000s      0.001w      1 calls
HF: Form core H                     :      0.000u      0.000s      0.001w      1 calls
HF: Form S/X                        :      0.000u      0.000s      0.000w      1 calls
HF: Guess                           :      0.017u      0.000s      0.016w      1 calls
| SAD Guess                         :      0.017u      0.000s      0.015w      1 calls
HF: Form G                          :      0.000u      0.000s      0.002w     11 calls
| JK: D                             :      0.000u      0.000s      0.000w     11 calls
| JK: USO2AO                        :      0.000u      0.000s      0.000w     11 calls
| JK: JK                            :      0.000u      0.000s      0.002w     11 calls
| | DFH: compute_JK()               :      0.000u      0.000s      0.002w     11 calls
| | | DFH: Grabbing AOs             :      0.000u      0.000s      0.000w     11 calls
| | | DFH: compute_J                :      0.000u      0.000s      0.000w     11 calls
| | | DFH: compute_K                :      0.000u      0.000s      0.001w     11 calls
| JK: AO2USO                        :      0.000u      0.000s      0.000w     11 calls
HF: Form F                          :      0.000u      0.000s      0.000w     11 calls
HF: Form D                          :      0.000u      0.000s      0.000w     11 calls
HF: DIIS                            :      0.200u      0.050s      0.208w     10 calls
HF: Form C                          :      0.000u      0.000s      0.002w     10 calls
Libint2ERI::Libint2ERI              :      0.017u      0.000s      0.003w      1 calls
DLPNO-CCSD(T)                       :      1.000u      0.000s      0.601w      1 calls
| DLPNO-CCSD                        :      0.650u      0.000s      0.391w      1 calls
| | Setup Orbitals                  :      0.017u      0.000s      0.001w      1 calls
| | | Local MOs                     :      0.017u      0.000s      0.001w      1 calls
| | | Projected AOs                 :      0.000u      0.000s      0.000w      1 calls
| | Overlap Ints                    :      0.000u      0.000s      0.003w      1 calls
| | | Construct Grid                :      0.000u      0.000s      0.001w      1 calls
| | | | build grid                  :      0.000u      0.000s      0.001w      1 calls
| | | | post-process grid           :      0.000u      0.000s      0.000w      1 calls
| | | Integration                   :      0.000u      0.000s      0.002w      1 calls
| | Dipole Ints                     :      0.000u      0.000s      0.001w      1 calls
| | Compute Metric                  :      0.000u      0.000s      0.001w      1 calls
| | | (K|L)                         :      0.000u      0.000s      0.001w      1 calls
| | | | Libint2ERI::Libint2ERI      :      0.000u      0.000s      0.000w      1 calls
| | Sparsity                        :      0.000u      0.000s      0.000w      3 calls
| | Crude DF Ints                   :      0.017u      0.000s      0.005w      1 calls
| | | (mn|K) -> (ia|K)              :      0.017u      0.000s      0.005w      1 calls
| | | | Libint2ERI::Libint2ERI      :      0.000u      0.000s      0.002w      1 calls
| | Crude Pair Prescreening         :      0.000u      0.000s      0.002w      1 calls
| | Refined DF Ints                 :      0.000u      0.000s      0.004w      1 calls
| | | (mn|K) -> (ia|K)              :      0.000u      0.000s      0.004w      1 calls
| | | | Libint2ERI::Libint2ERI      :      0.000u      0.000s      0.002w      1 calls
| | Refined Pair Prescreening       :      0.000u      0.000s      0.003w      1 calls
| | PNO-LMP2 Iterations             :      0.017u      0.000s      0.009w      1 calls
| | DF Ints                         :      0.017u      0.000s      0.008w      1 calls
| | | (mn|K)->(ij|K)                :      0.017u      0.000s      0.004w      1 calls
| | | | Libint2ERI::Libint2ERI      :      0.017u      0.000s      0.001w      1 calls
| | | (mn|K)->(ab|K)                :      0.000u      0.000s      0.004w      1 calls
| | | | Libint2ERI::Libint2ERI      :      0.000u      0.000s      0.001w      1 calls
| | CC Integrals                    :      0.083u      0.000s      0.051w      1 calls
| | | DLPNO-CCSD: Setup Integrals   :      0.050u      0.000s      0.024w     10 calls
| | | DLPNO-CCSD: J_ij_kj Integrals :      0.033u      0.000s      0.020w     10 calls
| | | DLPNO-CCSD: K_ij_kj Integrals :      0.000u      0.000s      0.005w     10 calls
| | | DLPNO-CCSD: Contract Integrals:      0.000u      0.000s      0.001w     10 calls
| | PNO Overlaps                    :      0.000u      0.000s      0.001w      1 calls
| | LCCSD                           :      0.500u      0.000s      0.301w      1 calls
| | | DLPNO-CCSD: T1 Ints           :      0.050u      0.000s      0.034w     14 calls
| | | DLPNO-CCSD: T1 Fock           :      0.100u      0.000s      0.064w     14 calls
| | | DLPNO-CCSD: Compute R1        :      0.017u      0.000s      0.007w     14 calls
| | | DLPNO-CCSD: Compute R2        :      0.333u      0.000s      0.191w     14 calls
| | | | DLPNO-CCSD: beta            :      0.067u      0.000s      0.034w     14 calls
| | | | DLPNO-CCSD: gamma           :      0.000u      0.000s      0.012w     14 calls
| | | | DLPNO-CCSD: delta           :      0.033u      0.000s      0.014w     14 calls
| | | | DLPNO-CCSD: Fkj double tilde:      0.017u      0.000s      0.004w     14 calls
| Triples Sparsity                  :      0.000u      0.000s      0.000w      2 calls
| TNO transform                     :      0.017u      0.000s      0.009w      3 calls
| LCCSD(T0)                         :      0.250u      0.000s      0.145w      3 calls
| | LCCSD(T0): Setup Integrals      :      0.067u      0.000s      0.047w     48 calls
| | LCCSD(T0): Contract Integrals   :      0.133u      0.000s      0.067w     48 calls
| | LCCSD(T0): Form W               :      0.000u      0.000s      0.021w     48 calls
| | LCCSD(T0): Form V               :      0.000u      0.000s      0.001w     48 calls
| Sort Triplets                     :      0.000u      0.000s      0.000w      1 calls
| LCCSD(T) Iterations               :      0.083u      0.000s      0.056w      1 calls
| | Compute (T) Energy              :      0.000u      0.000s      0.004w      4 calls
DLPNO-CCSD: Compute R1              :      0.050u      0.000s      0.029w     50 calls

**************************************************************************************

Host: b6-10

Timers On : Tue Aug 13 22:39:39 2024
Timers Off: Tue Aug 13 22:39:41 2024

Wall Time:        1.50 seconds

                                                       Time (seconds)
Module                                       User      System        Wall        Calls
DFH: sparsity prep                  :      0.000u      0.000s      0.005w      1 calls
Libint2ERI::Libint2ERI              :      0.017u      0.000s      0.015w      9 calls
DFH: initialize()                   :      0.017u      0.000s      0.009w      1 calls
DFH: AO Construction                :      0.000u      0.000s      0.002w      1 calls
DFH: AO-Met. Contraction            :      0.000u      0.000s      0.001w      1 calls
HF: Form core H                     :      0.000u      0.000s      0.001w      1 calls
HF: Form S/X                        :      0.000u      0.000s      0.000w      1 calls
HF: Guess                           :      0.017u      0.017s      0.016w      1 calls
SAD Guess                           :      0.017u      0.017s      0.015w      1 calls
HF: Form G                          :      0.000u      0.000s      0.002w     11 calls
JK: D                               :      0.000u      0.000s      0.000w     11 calls
JK: USO2AO                          :      0.000u      0.000s      0.000w     11 calls
JK: JK                              :      0.000u      0.000s      0.002w     11 calls
DFH: compute_JK()                   :      0.000u      0.000s      0.002w     11 calls
DFH: Grabbing AOs                   :      0.000u      0.000s      0.000w     11 calls
DFH: compute_J                      :      0.000u      0.000s      0.000w     11 calls
DFH: compute_K                      :      0.000u      0.000s      0.001w     11 calls
JK: AO2USO                          :      0.000u      0.000s      0.000w     11 calls
HF: Form F                          :      0.000u      0.000s      0.000w     11 calls
HF: Form D                          :      0.000u      0.000s      0.000w     11 calls
HF: DIIS                            :      0.167u      0.033s      0.143w     10 calls
HF: Form C                          :      0.000u      0.000s      0.002w     10 calls
DLPNO-CCSD(T)                       :      1.000u      0.000s      0.600w      1 calls
DLPNO-CCSD                          :      0.650u      0.000s      0.389w      1 calls
Setup Orbitals                      :      0.000u      0.000s      0.001w      1 calls
Local MOs                           :      0.000u      0.000s      0.001w      1 calls
Projected AOs                       :      0.000u      0.000s      0.000w      1 calls
Overlap Ints                        :      0.000u      0.000s      0.003w      1 calls
Construct Grid                      :      0.000u      0.000s      0.001w      1 calls
build grid                          :      0.000u      0.000s      0.001w      1 calls
post-process grid                   :      0.000u      0.000s      0.000w      1 calls
Integration                         :      0.000u      0.000s      0.002w      1 calls
Dipole Ints                         :      0.017u      0.000s      0.001w      1 calls
Compute Metric                      :      0.000u      0.000s      0.001w      1 calls
(K|L)                               :      0.000u      0.000s      0.001w      1 calls
Sparsity                            :      0.000u      0.000s      0.001w      3 calls
Crude DF Ints                       :      0.000u      0.000s      0.005w      1 calls
(mn|K) -> (ia|K)                    :      0.017u      0.000s      0.009w      2 calls
Crude Pair Prescreening             :      0.000u      0.000s      0.002w      1 calls
Refined DF Ints                     :      0.017u      0.000s      0.004w      1 calls
Refined Pair Prescreening           :      0.000u      0.000s      0.003w      1 calls
PNO-LMP2 Iterations                 :      0.017u      0.000s      0.009w      1 calls
DF Ints                             :      0.017u      0.000s      0.008w      1 calls
(mn|K)->(ij|K)                      :      0.000u      0.000s      0.004w      1 calls
(mn|K)->(ab|K)                      :      0.017u      0.000s      0.004w      1 calls
CC Integrals                        :      0.083u      0.000s      0.051w      1 calls
DLPNO-CCSD: Setup Integrals         :      0.033u      0.000s      0.024w     10 calls
DLPNO-CCSD: J_ij_kj Integrals       :      0.050u      0.000s      0.020w     10 calls
DLPNO-CCSD: K_ij_kj Integrals       :      0.000u      0.000s      0.005w     10 calls
DLPNO-CCSD: Contract Integrals      :      0.000u      0.000s      0.001w     10 calls
PNO Overlaps                        :      0.000u      0.000s      0.001w      1 calls
LCCSD                               :      0.500u      0.000s      0.300w      1 calls
DLPNO-CCSD: T1 Ints                 :      0.050u      0.000s      0.034w     14 calls
DLPNO-CCSD: T1 Fock                 :      0.133u      0.000s      0.064w     14 calls
DLPNO-CCSD: Compute R1              :      0.017u      0.000s      0.035w     64 calls
DLPNO-CCSD: Compute R2              :      0.300u      0.000s      0.190w     14 calls
DLPNO-CCSD: beta                    :      0.050u      0.000s      0.033w     14 calls
DLPNO-CCSD: gamma                   :      0.017u      0.000s      0.012w     14 calls
DLPNO-CCSD: delta                   :      0.017u      0.000s      0.014w     14 calls
DLPNO-CCSD: Fkj double tilde        :      0.017u      0.000s      0.004w     14 calls
Triples Sparsity                    :      0.000u      0.000s      0.000w      2 calls
TNO transform                       :      0.000u      0.000s      0.009w      3 calls
LCCSD(T0)                           :      0.250u      0.000s      0.146w      3 calls
LCCSD(T0): Setup Integrals          :      0.050u      0.000s      0.047w     48 calls
LCCSD(T0): Contract Integrals       :      0.133u      0.000s      0.068w     48 calls
LCCSD(T0): Form W                   :      0.017u      0.000s      0.021w     48 calls
LCCSD(T0): Form V                   :      0.000u      0.000s      0.001w     48 calls
Sort Triplets                       :      0.000u      0.000s      0.000w      1 calls
LCCSD(T) Iterations                 :      0.100u      0.000s      0.056w      1 calls
Compute (T) Energy                  :      0.000u      0.000s      0.004w      4 calls

--------------------------------------------------------------------------------------
DFH: sparsity prep                  :      0.000u      0.000s      0.005w      1 calls
| Libint2ERI::Libint2ERI            :      0.000u      0.000s      0.004w      1 calls
DFH: initialize()                   :      0.017u      0.000s      0.009w      1 calls
| Libint2ERI::Libint2ERI            :      0.000u      0.000s      0.002w      2 calls
| DFH: AO Construction              :      0.000u      0.000s      0.002w      1 calls
| DFH: AO-Met. Contraction          :      0.000u      0.000s      0.001w      1 calls
HF: Form core H                     :      0.000u      0.000s      0.001w      1 calls
HF: Form S/X                        :      0.000u      0.000s      0.000w      1 calls
HF: Guess                           :      0.017u      0.017s      0.016w      1 calls
| SAD Guess                         :      0.017u      0.017s      0.015w      1 calls
HF: Form G                          :      0.000u      0.000s      0.002w     11 calls
| JK: D                             :      0.000u      0.000s      0.000w     11 calls
| JK: USO2AO                        :      0.000u      0.000s      0.000w     11 calls
| JK: JK                            :      0.000u      0.000s      0.002w     11 calls
| | DFH: compute_JK()               :      0.000u      0.000s      0.002w     11 calls
| | | DFH: Grabbing AOs             :      0.000u      0.000s      0.000w     11 calls
| | | DFH: compute_J                :      0.000u      0.000s      0.000w     11 calls
| | | DFH: compute_K                :      0.000u      0.000s      0.001w     11 calls
| JK: AO2USO                        :      0.000u      0.000s      0.000w     11 calls
HF: Form F                          :      0.000u      0.000s      0.000w     11 calls
HF: Form D                          :      0.000u      0.000s      0.000w     11 calls
HF: DIIS                            :      0.167u      0.033s      0.143w     10 calls
HF: Form C                          :      0.000u      0.000s      0.002w     10 calls
Libint2ERI::Libint2ERI              :      0.000u      0.000s      0.003w      1 calls
DLPNO-CCSD(T)                       :      1.000u      0.000s      0.600w      1 calls
| DLPNO-CCSD                        :      0.650u      0.000s      0.389w      1 calls
| | Setup Orbitals                  :      0.000u      0.000s      0.001w      1 calls
| | | Local MOs                     :      0.000u      0.000s      0.001w      1 calls
| | | Projected AOs                 :      0.000u      0.000s      0.000w      1 calls
| | Overlap Ints                    :      0.000u      0.000s      0.003w      1 calls
| | | Construct Grid                :      0.000u      0.000s      0.001w      1 calls
| | | | build grid                  :      0.000u      0.000s      0.001w      1 calls
| | | | post-process grid           :      0.000u      0.000s      0.000w      1 calls
| | | Integration                   :      0.000u      0.000s      0.002w      1 calls
| | Dipole Ints                     :      0.017u      0.000s      0.001w      1 calls
| | Compute Metric                  :      0.000u      0.000s      0.001w      1 calls
| | | (K|L)                         :      0.000u      0.000s      0.001w      1 calls
| | | | Libint2ERI::Libint2ERI      :      0.000u      0.000s      0.000w      1 calls
| | Sparsity                        :      0.000u      0.000s      0.001w      3 calls
| | Crude DF Ints                   :      0.000u      0.000s      0.005w      1 calls
| | | (mn|K) -> (ia|K)              :      0.000u      0.000s      0.005w      1 calls
| | | | Libint2ERI::Libint2ERI      :      0.000u      0.000s      0.002w      1 calls
| | Crude Pair Prescreening         :      0.000u      0.000s      0.002w      1 calls
| | Refined DF Ints                 :      0.017u      0.000s      0.004w      1 calls
| | | (mn|K) -> (ia|K)              :      0.017u      0.000s      0.004w      1 calls
| | | | Libint2ERI::Libint2ERI      :      0.017u      0.000s      0.001w      1 calls
| | Refined Pair Prescreening       :      0.000u      0.000s      0.003w      1 calls
| | PNO-LMP2 Iterations             :      0.017u      0.000s      0.009w      1 calls
| | DF Ints                         :      0.017u      0.000s      0.008w      1 calls
| | | (mn|K)->(ij|K)                :      0.000u      0.000s      0.004w      1 calls
| | | | Libint2ERI::Libint2ERI      :      0.000u      0.000s      0.001w      1 calls
| | | (mn|K)->(ab|K)                :      0.017u      0.000s      0.004w      1 calls
| | | | Libint2ERI::Libint2ERI      :      0.000u      0.000s      0.001w      1 calls
| | CC Integrals                    :      0.083u      0.000s      0.051w      1 calls
| | | DLPNO-CCSD: Setup Integrals   :      0.033u      0.000s      0.024w     10 calls
| | | DLPNO-CCSD: J_ij_kj Integrals :      0.050u      0.000s      0.020w     10 calls
| | | DLPNO-CCSD: K_ij_kj Integrals :      0.000u      0.000s      0.005w     10 calls
| | | DLPNO-CCSD: Contract Integrals:      0.000u      0.000s      0.001w     10 calls
| | PNO Overlaps                    :      0.000u      0.000s      0.001w      1 calls
| | LCCSD                           :      0.500u      0.000s      0.300w      1 calls
| | | DLPNO-CCSD: T1 Ints           :      0.050u      0.000s      0.034w     14 calls
| | | DLPNO-CCSD: T1 Fock           :      0.133u      0.000s      0.064w     14 calls
| | | DLPNO-CCSD: Compute R1        :      0.000u      0.000s      0.007w     14 calls
| | | DLPNO-CCSD: Compute R2        :      0.300u      0.000s      0.190w     14 calls
| | | | DLPNO-CCSD: beta            :      0.050u      0.000s      0.033w     14 calls
| | | | DLPNO-CCSD: gamma           :      0.017u      0.000s      0.012w     14 calls
| | | | DLPNO-CCSD: delta           :      0.017u      0.000s      0.014w     14 calls
| | | | DLPNO-CCSD: Fkj double tilde:      0.017u      0.000s      0.004w     14 calls
| Triples Sparsity                  :      0.000u      0.000s      0.000w      2 calls
| TNO transform                     :      0.000u      0.000s      0.009w      3 calls
| LCCSD(T0)                         :      0.250u      0.000s      0.146w      3 calls
| | LCCSD(T0): Setup Integrals      :      0.050u      0.000s      0.047w     48 calls
| | LCCSD(T0): Contract Integrals   :      0.133u      0.000s      0.068w     48 calls
| | LCCSD(T0): Form W               :      0.017u      0.000s      0.021w     48 calls
| | LCCSD(T0): Form V               :      0.000u      0.000s      0.001w     48 calls
| Sort Triplets                     :      0.000u      0.000s      0.000w      1 calls
| LCCSD(T) Iterations               :      0.100u      0.000s      0.056w      1 calls
| | Compute (T) Energy              :      0.000u      0.000s      0.004w      4 calls
DLPNO-CCSD: Compute R1              :      0.017u      0.000s      0.028w     50 calls

**************************************************************************************

Host: b6-10

Timers On : Tue Aug 13 22:39:53 2024
Timers Off: Tue Aug 13 22:39:55 2024

Wall Time:        1.49 seconds

                                                       Time (seconds)
Module                                       User      System        Wall        Calls
DFH: sparsity prep                  :      0.000u      0.000s      0.005w      1 calls
Libint2ERI::Libint2ERI              :      0.000u      0.000s      0.015w      9 calls
DFH: initialize()                   :      0.017u      0.000s      0.009w      1 calls
DFH: AO Construction                :      0.000u      0.000s      0.002w      1 calls
DFH: AO-Met. Contraction            :      0.000u      0.000s      0.001w      1 calls
HF: Form core H                     :      0.000u      0.000s      0.001w      1 calls
HF: Form S/X                        :      0.000u      0.000s      0.000w      1 calls
HF: Guess                           :      0.033u      0.000s      0.016w      1 calls
SAD Guess                           :      0.033u      0.000s      0.015w      1 calls
HF: Form G                          :      0.000u      0.000s      0.002w     11 calls
JK: D                               :      0.000u      0.000s      0.000w     11 calls
JK: USO2AO                          :      0.000u      0.000s      0.000w     11 calls
JK: JK                              :      0.000u      0.000s      0.002w     11 calls
DFH: compute_JK()                   :      0.000u      0.000s      0.002w     11 calls
DFH: Grabbing AOs                   :      0.000u      0.000s      0.000w     11 calls
DFH: compute_J                      :      0.000u      0.000s      0.000w     11 calls
DFH: compute_K                      :      0.000u      0.000s      0.001w     11 calls
JK: AO2USO                          :      0.000u      0.000s      0.000w     11 calls
HF: Form F                          :      0.000u      0.000s      0.000w     11 calls
HF: Form D                          :      0.000u      0.000s      0.000w     11 calls
HF: DIIS                            :      0.167u      0.033s      0.143w     10 calls
HF: Form C                          :      0.000u      0.000s      0.002w     10 calls
DLPNO-CCSD(T)                       :      0.983u      0.000s      0.595w      1 calls
DLPNO-CCSD                          :      0.633u      0.000s      0.384w      1 calls
Setup Orbitals                      :      0.000u      0.000s      0.001w      1 calls
Local MOs                           :      0.000u      0.000s      0.001w      1 calls
Projected AOs                       :      0.000u      0.000s      0.000w      1 calls
Overlap Ints                        :      0.000u      0.000s      0.003w      1 calls
Construct Grid                      :      0.000u      0.000s      0.001w      1 calls
build grid                          :      0.000u      0.000s      0.001w      1 calls
post-process grid                   :      0.000u      0.000s      0.000w      1 calls
Integration                         :      0.000u      0.000s      0.002w      1 calls
Dipole Ints                         :      0.000u      0.000s      0.001w      1 calls
Compute Metric                      :      0.000u      0.000s      0.001w      1 calls
(K|L)                               :      0.000u      0.000s      0.001w      1 calls
Sparsity                            :      0.017u      0.000s      0.000w      3 calls
Crude DF Ints                       :      0.000u      0.000s      0.005w      1 calls
(mn|K) -> (ia|K)                    :      0.017u      0.000s      0.009w      2 calls
Crude Pair Prescreening             :      0.000u      0.000s      0.002w      1 calls
Refined DF Ints                     :      0.017u      0.000s      0.004w      1 calls
Refined Pair Prescreening           :      0.000u      0.000s      0.003w      1 calls
PNO-LMP2 Iterations                 :      0.017u      0.000s      0.009w      1 calls
DF Ints                             :      0.000u      0.000s      0.008w      1 calls
(mn|K)->(ij|K)                      :      0.000u      0.000s      0.004w      1 calls
(mn|K)->(ab|K)                      :      0.000u      0.000s      0.004w      1 calls
CC Integrals                        :      0.100u      0.000s      0.051w      1 calls
DLPNO-CCSD: Setup Integrals         :      0.017u      0.000s      0.024w     10 calls
DLPNO-CCSD: J_ij_kj Integrals       :      0.067u      0.000s      0.020w     10 calls
DLPNO-CCSD: K_ij_kj Integrals       :      0.000u      0.000s      0.005w     10 calls
DLPNO-CCSD: Contract Integrals      :      0.017u      0.000s      0.001w     10 calls
PNO Overlaps                        :      0.000u      0.000s      0.001w      1 calls
LCCSD                               :      0.483u      0.000s      0.296w      1 calls
DLPNO-CCSD: T1 Ints                 :      0.033u      0.000s      0.033w     14 calls
DLPNO-CCSD: T1 Fock                 :      0.133u      0.000s      0.062w     14 calls
DLPNO-CCSD: Compute R1              :      0.033u      0.000s      0.035w     64 calls
DLPNO-CCSD: Compute R2              :      0.317u      0.000s      0.187w     14 calls
DLPNO-CCSD: beta                    :      0.067u      0.000s      0.033w     14 calls
DLPNO-CCSD: gamma                   :      0.017u      0.000s      0.012w     14 calls
DLPNO-CCSD: delta                   :      0.017u      0.000s      0.014w     14 calls
DLPNO-CCSD: Fkj double tilde        :      0.000u      0.000s      0.004w     14 calls
Triples Sparsity                    :      0.000u      0.000s      0.000w      2 calls
TNO transform                       :      0.033u      0.000s      0.009w      3 calls
LCCSD(T0)                           :      0.217u      0.000s      0.145w      3 calls
LCCSD(T0): Setup Integrals          :      0.083u      0.000s      0.047w     48 calls
LCCSD(T0): Contract Integrals       :      0.100u      0.000s      0.068w     48 calls
LCCSD(T0): Form W                   :      0.017u      0.000s      0.021w     48 calls
LCCSD(T0): Form V                   :      0.017u      0.000s      0.001w     48 calls
Sort Triplets                       :      0.000u      0.000s      0.000w      1 calls
LCCSD(T) Iterations                 :      0.100u      0.000s      0.056w      1 calls
Compute (T) Energy                  :      0.000u      0.000s      0.004w      4 calls

--------------------------------------------------------------------------------------
DFH: sparsity prep                  :      0.000u      0.000s      0.005w      1 calls
| Libint2ERI::Libint2ERI            :      0.000u      0.000s      0.004w      1 calls
DFH: initialize()                   :      0.017u      0.000s      0.009w      1 calls
| Libint2ERI::Libint2ERI            :      0.000u      0.000s      0.002w      2 calls
| DFH: AO Construction              :      0.000u      0.000s      0.002w      1 calls
| DFH: AO-Met. Contraction          :      0.000u      0.000s      0.001w      1 calls
HF: Form core H                     :      0.000u      0.000s      0.001w      1 calls
HF: Form S/X                        :      0.000u      0.000s      0.000w      1 calls
HF: Guess                           :      0.033u      0.000s      0.016w      1 calls
| SAD Guess                         :      0.033u      0.000s      0.015w      1 calls
HF: Form G                          :      0.000u      0.000s      0.002w     11 calls
| JK: D                             :      0.000u      0.000s      0.000w     11 calls
| JK: USO2AO                        :      0.000u      0.000s      0.000w     11 calls
| JK: JK                            :      0.000u      0.000s      0.002w     11 calls
| | DFH: compute_JK()               :      0.000u      0.000s      0.002w     11 calls
| | | DFH: Grabbing AOs             :      0.000u      0.000s      0.000w     11 calls
| | | DFH: compute_J                :      0.000u      0.000s      0.000w     11 calls
| | | DFH: compute_K                :      0.000u      0.000s      0.001w     11 calls
| JK: AO2USO                        :      0.000u      0.000s      0.000w     11 calls
HF: Form F                          :      0.000u      0.000s      0.000w     11 calls
HF: Form D                          :      0.000u      0.000s      0.000w     11 calls
HF: DIIS                            :      0.167u      0.033s      0.143w     10 calls
HF: Form C                          :      0.000u      0.000s      0.002w     10 calls
Libint2ERI::Libint2ERI              :      0.000u      0.000s      0.003w      1 calls
DLPNO-CCSD(T)                       :      0.983u      0.000s      0.595w      1 calls
| DLPNO-CCSD                        :      0.633u      0.000s      0.384w      1 calls
| | Setup Orbitals                  :      0.000u      0.000s      0.001w      1 calls
| | | Local MOs                     :      0.000u      0.000s      0.001w      1 calls
| | | Projected AOs                 :      0.000u      0.000s      0.000w      1 calls
| | Overlap Ints                    :      0.000u      0.000s      0.003w      1 calls
| | | Construct Grid                :      0.000u      0.000s      0.001w      1 calls
| | | | build grid                  :      0.000u      0.000s      0.001w      1 calls
| | | | post-process grid           :      0.000u      0.000s      0.000w      1 calls
| | | Integration                   :      0.000u      0.000s      0.002w      1 calls
| | Dipole Ints                     :      0.000u      0.000s      0.001w      1 calls
| | Compute Metric                  :      0.000u      0.000s      0.001w      1 calls
| | | (K|L)                         :      0.000u      0.000s      0.001w      1 calls
| | | | Libint2ERI::Libint2ERI      :      0.000u      0.000s      0.000w      1 calls
| | Sparsity                        :      0.017u      0.000s      0.000w      3 calls
| | Crude DF Ints                   :      0.000u      0.000s      0.005w      1 calls
| | | (mn|K) -> (ia|K)              :      0.000u      0.000s      0.005w      1 calls
| | | | Libint2ERI::Libint2ERI      :      0.000u      0.000s      0.002w      1 calls
| | Crude Pair Prescreening         :      0.000u      0.000s      0.002w      1 calls
| | Refined DF Ints                 :      0.017u      0.000s      0.004w      1 calls
| | | (mn|K) -> (ia|K)              :      0.017u      0.000s      0.004w      1 calls
| | | | Libint2ERI::Libint2ERI      :      0.000u      0.000s      0.001w      1 calls
| | Refined Pair Prescreening       :      0.000u      0.000s      0.003w      1 calls
| | PNO-LMP2 Iterations             :      0.017u      0.000s      0.009w      1 calls
| | DF Ints                         :      0.000u      0.000s      0.008w      1 calls
| | | (mn|K)->(ij|K)                :      0.000u      0.000s      0.004w      1 calls
| | | | Libint2ERI::Libint2ERI      :      0.000u      0.000s      0.001w      1 calls
| | | (mn|K)->(ab|K)                :      0.000u      0.000s      0.004w      1 calls
| | | | Libint2ERI::Libint2ERI      :      0.000u      0.000s      0.001w      1 calls
| | CC Integrals                    :      0.100u      0.000s      0.051w      1 calls
| | | DLPNO-CCSD: Setup Integrals   :      0.017u      0.000s      0.024w     10 calls
| | | DLPNO-CCSD: J_ij_kj Integrals :      0.067u      0.000s      0.020w     10 calls
| | | DLPNO-CCSD: K_ij_kj Integrals :      0.000u      0.000s      0.005w     10 calls
| | | DLPNO-CCSD: Contract Integrals:      0.017u      0.000s      0.001w     10 calls
| | PNO Overlaps                    :      0.000u      0.000s      0.001w      1 calls
| | LCCSD                           :      0.483u      0.000s      0.296w      1 calls
| | | DLPNO-CCSD: T1 Ints           :      0.033u      0.000s      0.033w     14 calls
| | | DLPNO-CCSD: T1 Fock           :      0.133u      0.000s      0.062w     14 calls
| | | DLPNO-CCSD: Compute R1        :      0.000u      0.000s      0.007w     14 calls
| | | DLPNO-CCSD: Compute R2        :      0.317u      0.000s      0.187w     14 calls
| | | | DLPNO-CCSD: beta            :      0.067u      0.000s      0.033w     14 calls
| | | | DLPNO-CCSD: gamma           :      0.017u      0.000s      0.012w     14 calls
| | | | DLPNO-CCSD: delta           :      0.017u      0.000s      0.014w     14 calls
| | | | DLPNO-CCSD: Fkj double tilde:      0.000u      0.000s      0.004w     14 calls
| Triples Sparsity                  :      0.000u      0.000s      0.000w      2 calls
| TNO transform                     :      0.033u      0.000s      0.009w      3 calls
| LCCSD(T0)                         :      0.217u      0.000s      0.145w      3 calls
| | LCCSD(T0): Setup Integrals      :      0.083u      0.000s      0.047w     48 calls
| | LCCSD(T0): Contract Integrals   :      0.100u      0.000s      0.068w     48 calls
| | LCCSD(T0): Form W               :      0.017u      0.000s      0.021w     48 calls
| | LCCSD(T0): Form V               :      0.017u      0.000s      0.001w     48 calls
| Sort Triplets                     :      0.000u      0.000s      0.000w      1 calls
| LCCSD(T) Iterations               :      0.100u      0.000s      0.056w      1 calls
| | Compute (T) Energy              :      0.000u      0.000s      0.004w      4 calls
DLPNO-CCSD: Compute R1              :      0.033u      0.000s      0.028w     50 calls

**************************************************************************************

Host: b6-10

Timers On : Tue Aug 13 22:42:51 2024
Timers Off: Tue Aug 13 22:42:53 2024

Wall Time:        1.64 seconds

                                                       Time (seconds)
Module                                       User      System        Wall        Calls
DFH: sparsity prep                  :      0.000u      0.000s      0.005w      1 calls
Libint2ERI::Libint2ERI              :      0.017u      0.000s      0.015w      9 calls
DFH: initialize()                   :      0.017u      0.000s      0.009w      1 calls
DFH: AO Construction                :      0.000u      0.000s      0.002w      1 calls
DFH: AO-Met. Contraction            :      0.000u      0.000s      0.001w      1 calls
HF: Form core H                     :      0.000u      0.000s      0.001w      1 calls
HF: Form S/X                        :      0.000u      0.000s      0.000w      1 calls
HF: Guess                           :      0.033u      0.000s      0.016w      1 calls
SAD Guess                           :      0.033u      0.000s      0.015w      1 calls
HF: Form G                          :      0.000u      0.000s      0.002w     11 calls
JK: D                               :      0.000u      0.000s      0.000w     11 calls
JK: USO2AO                          :      0.000u      0.000s      0.000w     11 calls
JK: JK                              :      0.000u      0.000s      0.002w     11 calls
DFH: compute_JK()                   :      0.000u      0.000s      0.002w     11 calls
DFH: Grabbing AOs                   :      0.000u      0.000s      0.000w     11 calls
DFH: compute_J                      :      0.000u      0.000s      0.000w     11 calls
DFH: compute_K                      :      0.000u      0.000s      0.001w     11 calls
JK: AO2USO                          :      0.000u      0.000s      0.000w     11 calls
HF: Form F                          :      0.000u      0.000s      0.000w     11 calls
HF: Form D                          :      0.000u      0.000s      0.000w     11 calls
HF: DIIS                            :      0.183u      0.050s      0.204w     10 calls
HF: Form C                          :      0.000u      0.000s      0.002w     10 calls
DLPNO-CCSD(T)                       :      1.000u      0.000s      0.599w      1 calls
DLPNO-CCSD                          :      0.650u      0.000s      0.389w      1 calls
Setup Orbitals                      :      0.000u      0.000s      0.001w      1 calls
Local MOs                           :      0.000u      0.000s      0.001w      1 calls
Projected AOs                       :      0.000u      0.000s      0.000w      1 calls
Overlap Ints                        :      0.017u      0.000s      0.003w      1 calls
Construct Grid                      :      0.000u      0.000s      0.001w      1 calls
build grid                          :      0.000u      0.000s      0.001w      1 calls
post-process grid                   :      0.000u      0.000s      0.000w      1 calls
Integration                         :      0.017u      0.000s      0.002w      1 calls
Dipole Ints                         :      0.000u      0.000s      0.001w      1 calls
Compute Metric                      :      0.000u      0.000s      0.001w      1 calls
(K|L)                               :      0.000u      0.000s      0.001w      1 calls
Sparsity                            :      0.000u      0.000s      0.000w      3 calls
Crude DF Ints                       :      0.000u      0.000s      0.005w      1 calls
(mn|K) -> (ia|K)                    :      0.000u      0.000s      0.009w      2 calls
Crude Pair Prescreening             :      0.017u      0.000s      0.002w      1 calls
Refined DF Ints                     :      0.000u      0.000s      0.004w      1 calls
Refined Pair Prescreening           :      0.000u      0.000s      0.003w      1 calls
PNO-LMP2 Iterations                 :      0.017u      0.000s      0.009w      1 calls
DF Ints                             :      0.017u      0.000s      0.008w      1 calls
(mn|K)->(ij|K)                      :      0.000u      0.000s      0.004w      1 calls
(mn|K)->(ab|K)                      :      0.017u      0.000s      0.004w      1 calls
CC Integrals                        :      0.083u      0.000s      0.051w      1 calls
DLPNO-CCSD: Setup Integrals         :      0.050u      0.000s      0.024w     10 calls
DLPNO-CCSD: J_ij_kj Integrals       :      0.017u      0.000s      0.020w     10 calls
DLPNO-CCSD: K_ij_kj Integrals       :      0.017u      0.000s      0.005w     10 calls
DLPNO-CCSD: Contract Integrals      :      0.000u      0.000s      0.001w     10 calls
PNO Overlaps                        :      0.000u      0.000s      0.001w      1 calls
LCCSD                               :      0.500u      0.000s      0.300w      1 calls
DLPNO-CCSD: T1 Ints                 :      0.067u      0.000s      0.034w     14 calls
DLPNO-CCSD: T1 Fock                 :      0.100u      0.000s      0.063w     14 calls
DLPNO-CCSD: Compute R1              :      0.033u      0.000s      0.036w     64 calls
DLPNO-CCSD: Compute R2              :      0.317u      0.000s      0.190w     14 calls
DLPNO-CCSD: beta                    :      0.050u      0.000s      0.033w     14 calls
DLPNO-CCSD: gamma                   :      0.033u      0.000s      0.012w     14 calls
DLPNO-CCSD: delta                   :      0.033u      0.000s      0.014w     14 calls
DLPNO-CCSD: Fkj double tilde        :      0.000u      0.000s      0.004w     14 calls
Triples Sparsity                    :      0.000u      0.000s      0.000w      2 calls
TNO transform                       :      0.017u      0.000s      0.009w      3 calls
LCCSD(T0)                           :      0.233u      0.000s      0.145w      3 calls
LCCSD(T0): Setup Integrals          :      0.083u      0.000s      0.047w     48 calls
LCCSD(T0): Contract Integrals       :      0.117u      0.000s      0.068w     48 calls
LCCSD(T0): Form W                   :      0.017u      0.000s      0.021w     48 calls
LCCSD(T0): Form V                   :      0.000u      0.000s      0.001w     48 calls
Sort Triplets                       :      0.000u      0.000s      0.000w      1 calls
LCCSD(T) Iterations                 :      0.100u      0.000s      0.056w      1 calls
Compute (T) Energy                  :      0.000u      0.000s      0.004w      4 calls

--------------------------------------------------------------------------------------
DFH: sparsity prep                  :      0.000u      0.000s      0.005w      1 calls
| Libint2ERI::Libint2ERI            :      0.000u      0.000s      0.004w      1 calls
DFH: initialize()                   :      0.017u      0.000s      0.009w      1 calls
| Libint2ERI::Libint2ERI            :      0.017u      0.000s      0.002w      2 calls
| DFH: AO Construction              :      0.000u      0.000s      0.002w      1 calls
| DFH: AO-Met. Contraction          :      0.000u      0.000s      0.001w      1 calls
HF: Form core H                     :      0.000u      0.000s      0.001w      1 calls
HF: Form S/X                        :      0.000u      0.000s      0.000w      1 calls
HF: Guess                           :      0.033u      0.000s      0.016w      1 calls
| SAD Guess                         :      0.033u      0.000s      0.015w      1 calls
HF: Form G                          :      0.000u      0.000s      0.002w     11 calls
| JK: D                             :      0.000u      0.000s      0.000w     11 calls
| JK: USO2AO                        :      0.000u      0.000s      0.000w     11 calls
| JK: JK                            :      0.000u      0.000s      0.002w     11 calls
| | DFH: compute_JK()               :      0.000u      0.000s      0.002w     11 calls
| | | DFH: Grabbing AOs             :      0.000u      0.000s      0.000w     11 calls
| | | DFH: compute_J                :      0.000u      0.000s      0.000w     11 calls
| | | DFH: compute_K                :      0.000u      0.000s      0.001w     11 calls
| JK: AO2USO                        :      0.000u      0.000s      0.000w     11 calls
HF: Form F                          :      0.000u      0.000s      0.000w     11 calls
HF: Form D                          :      0.000u      0.000s      0.000w     11 calls
HF: DIIS                            :      0.183u      0.050s      0.204w     10 calls
HF: Form C                          :      0.000u      0.000s      0.002w     10 calls
Libint2ERI::Libint2ERI              :      0.000u      0.000s      0.003w      1 calls
DLPNO-CCSD(T)                       :      1.000u      0.000s      0.599w      1 calls
| DLPNO-CCSD                        :      0.650u      0.000s      0.389w      1 calls
| | Setup Orbitals                  :      0.000u      0.000s      0.001w      1 calls
| | | Local MOs                     :      0.000u      0.000s      0.001w      1 calls
| | | Projected AOs                 :      0.000u      0.000s      0.000w      1 calls
| | Overlap Ints                    :      0.017u      0.000s      0.003w      1 calls
| | | Construct Grid                :      0.000u      0.000s      0.001w      1 calls
| | | | build grid                  :      0.000u      0.000s      0.001w      1 calls
| | | | post-process grid           :      0.000u      0.000s      0.000w      1 calls
| | | Integration                   :      0.017u      0.000s      0.002w      1 calls
| | Dipole Ints                     :      0.000u      0.000s      0.001w      1 calls
| | Compute Metric                  :      0.000u      0.000s      0.001w      1 calls
| | | (K|L)                         :      0.000u      0.000s      0.001w      1 calls
| | | | Libint2ERI::Libint2ERI      :      0.000u      0.000s      0.000w      1 calls
| | Sparsity                        :      0.000u      0.000s      0.000w      3 calls
| | Crude DF Ints                   :      0.000u      0.000s      0.005w      1 calls
| | | (mn|K) -> (ia|K)              :      0.000u      0.000s      0.005w      1 calls
| | | | Libint2ERI::Libint2ERI      :      0.000u      0.000s      0.002w      1 calls
| | Crude Pair Prescreening         :      0.017u      0.000s      0.002w      1 calls
| | Refined DF Ints                 :      0.000u      0.000s      0.004w      1 calls
| | | (mn|K) -> (ia|K)              :      0.000u      0.000s      0.004w      1 calls
| | | | Libint2ERI::Libint2ERI      :      0.000u      0.000s      0.001w      1 calls
| | Refined Pair Prescreening       :      0.000u      0.000s      0.003w      1 calls
| | PNO-LMP2 Iterations             :      0.017u      0.000s      0.009w      1 calls
| | DF Ints                         :      0.017u      0.000s      0.008w      1 calls
| | | (mn|K)->(ij|K)                :      0.000u      0.000s      0.004w      1 calls
| | | | Libint2ERI::Libint2ERI      :      0.000u      0.000s      0.001w      1 calls
| | | (mn|K)->(ab|K)                :      0.017u      0.000s      0.004w      1 calls
| | | | Libint2ERI::Libint2ERI      :      0.000u      0.000s      0.001w      1 calls
| | CC Integrals                    :      0.083u      0.000s      0.051w      1 calls
| | | DLPNO-CCSD: Setup Integrals   :      0.050u      0.000s      0.024w     10 calls
| | | DLPNO-CCSD: J_ij_kj Integrals :      0.017u      0.000s      0.020w     10 calls
| | | DLPNO-CCSD: K_ij_kj Integrals :      0.017u      0.000s      0.005w     10 calls
| | | DLPNO-CCSD: Contract Integrals:      0.000u      0.000s      0.001w     10 calls
| | PNO Overlaps                    :      0.000u      0.000s      0.001w      1 calls
| | LCCSD                           :      0.500u      0.000s      0.300w      1 calls
| | | DLPNO-CCSD: T1 Ints           :      0.067u      0.000s      0.034w     14 calls
| | | DLPNO-CCSD: T1 Fock           :      0.100u      0.000s      0.063w     14 calls
| | | DLPNO-CCSD: Compute R1        :      0.017u      0.000s      0.007w     14 calls
| | | DLPNO-CCSD: Compute R2        :      0.317u      0.000s      0.190w     14 calls
| | | | DLPNO-CCSD: beta            :      0.050u      0.000s      0.033w     14 calls
| | | | DLPNO-CCSD: gamma           :      0.033u      0.000s      0.012w     14 calls
| | | | DLPNO-CCSD: delta           :      0.033u      0.000s      0.014w     14 calls
| | | | DLPNO-CCSD: Fkj double tilde:      0.000u      0.000s      0.004w     14 calls
| Triples Sparsity                  :      0.000u      0.000s      0.000w      2 calls
| TNO transform                     :      0.017u      0.000s      0.009w      3 calls
| LCCSD(T0)                         :      0.233u      0.000s      0.145w      3 calls
| | LCCSD(T0): Setup Integrals      :      0.083u      0.000s      0.047w     48 calls
| | LCCSD(T0): Contract Integrals   :      0.117u      0.000s      0.068w     48 calls
| | LCCSD(T0): Form W               :      0.017u      0.000s      0.021w     48 calls
| | LCCSD(T0): Form V               :      0.000u      0.000s      0.001w     48 calls
| Sort Triplets                     :      0.000u      0.000s      0.000w      1 calls
| LCCSD(T) Iterations               :      0.100u      0.000s      0.056w      1 calls
| | Compute (T) Energy              :      0.000u      0.000s      0.004w      4 calls
DLPNO-CCSD: Compute R1              :      0.017u      0.000s      0.028w     50 calls

**************************************************************************************

Host: b6-10

Timers On : Tue Aug 13 23:26:52 2024
Timers Off: Tue Aug 13 23:26:57 2024

Wall Time:        5.17 seconds

                                                       Time (seconds)
Module                                       User      System        Wall        Calls
DFH: sparsity prep                  :      0.000u      0.017s      0.005w      1 calls
Libint2ERI::Libint2ERI              :      0.033u      0.017s      0.015w      9 calls
DFH: initialize()                   :      0.017u      0.000s      0.009w      1 calls
DFH: AO Construction                :      0.000u      0.000s      0.002w      1 calls
DFH: AO-Met. Contraction            :      0.000u      0.000s      0.001w      1 calls
HF: Form core H                     :      0.000u      0.000s      0.001w      1 calls
HF: Form S/X                        :      0.000u      0.000s      0.000w      1 calls
HF: Guess                           :      0.033u      0.000s      0.016w      1 calls
SAD Guess                           :      0.033u      0.000s      0.015w      1 calls
HF: Form G                          :      0.000u      0.000s      0.002w     11 calls
JK: D                               :      0.000u      0.000s      0.000w     11 calls
JK: USO2AO                          :      0.000u      0.000s      0.000w     11 calls
JK: JK                              :      0.000u      0.000s      0.002w     11 calls
DFH: compute_JK()                   :      0.000u      0.000s      0.002w     11 calls
DFH: Grabbing AOs                   :      0.000u      0.000s      0.000w     11 calls
DFH: compute_J                      :      0.000u      0.000s      0.000w     11 calls
DFH: compute_K                      :      0.000u      0.000s      0.001w     11 calls
JK: AO2USO                          :      0.000u      0.000s      0.000w     11 calls
HF: Form F                          :      0.000u      0.000s      0.000w     11 calls
HF: Form D                          :      0.000u      0.000s      0.000w     11 calls
HF: DIIS                            :      0.167u      0.050s      0.210w     10 calls
HF: Form C                          :      0.000u      0.000s      0.002w     10 calls
DLPNO-CCSD(T)                       :      1.000u      0.000s      0.599w      1 calls
DLPNO-CCSD                          :      0.650u      0.000s      0.388w      1 calls
Setup Orbitals                      :      0.000u      0.000s      0.001w      1 calls
Local MOs                           :      0.000u      0.000s      0.001w      1 calls
Projected AOs                       :      0.000u      0.000s      0.000w      1 calls
Overlap Ints                        :      0.017u      0.000s      0.003w      1 calls
Construct Grid                      :      0.000u      0.000s      0.001w      1 calls
build grid                          :      0.000u      0.000s      0.001w      1 calls
post-process grid                   :      0.000u      0.000s      0.000w      1 calls
Integration                         :      0.017u      0.000s      0.002w      1 calls
Dipole Ints                         :      0.000u      0.000s      0.001w      1 calls
Compute Metric                      :      0.000u      0.000s      0.001w      1 calls
(K|L)                               :      0.000u      0.000s      0.001w      1 calls
Sparsity                            :      0.000u      0.000s      0.000w      3 calls
Crude DF Ints                       :      0.000u      0.000s      0.004w      1 calls
(mn|K) -> (ia|K)                    :      0.017u      0.000s      0.009w      2 calls
Crude Pair Prescreening             :      0.000u      0.000s      0.002w      1 calls
Refined DF Ints                     :      0.017u      0.000s      0.004w      1 calls
Refined Pair Prescreening           :      0.000u      0.000s      0.003w      1 calls
PNO-LMP2 Iterations                 :      0.017u      0.000s      0.009w      1 calls
DF Ints                             :      0.017u      0.000s      0.008w      1 calls
(mn|K)->(ij|K)                      :      0.000u      0.000s      0.004w      1 calls
(mn|K)->(ab|K)                      :      0.017u      0.000s      0.004w      1 calls
CC Integrals                        :      0.083u      0.000s      0.051w      1 calls
DLPNO-CCSD: Setup Integrals         :      0.067u      0.000s      0.024w     10 calls
DLPNO-CCSD: J_ij_kj Integrals       :      0.017u      0.000s      0.020w     10 calls
DLPNO-CCSD: K_ij_kj Integrals       :      0.000u      0.000s      0.005w     10 calls
DLPNO-CCSD: Contract Integrals      :      0.000u      0.000s      0.001w     10 calls
PNO Overlaps                        :      0.000u      0.000s      0.001w      1 calls
LCCSD                               :      0.500u      0.000s      0.299w      1 calls
DLPNO-CCSD: T1 Ints                 :      0.067u      0.000s      0.034w     14 calls
DLPNO-CCSD: T1 Fock                 :      0.117u      0.000s      0.063w     14 calls
DLPNO-CCSD: Compute R1              :      0.017u      0.000s      0.034w     64 calls
DLPNO-CCSD: Compute R2              :      1.500u      0.000s      0.902w     64 calls
DLPNO-CCSD: beta                    :      0.300u      0.000s      0.155w     64 calls
DLPNO-CCSD: gamma                   :      0.033u      0.000s      0.056w     64 calls
DLPNO-CCSD: delta                   :      0.100u      0.000s      0.065w     64 calls
DLPNO-CCSD: Fkj double tilde        :      0.017u      0.000s      0.020w     64 calls
Triples Sparsity                    :      0.000u      0.000s      0.000w      2 calls
TNO transform                       :      0.000u      0.000s      0.009w      3 calls
LCCSD(T0)                           :      0.250u      0.000s      0.145w      3 calls
LCCSD(T0): Setup Integrals          :      0.067u      0.000s      0.047w     48 calls
LCCSD(T0): Contract Integrals       :      0.117u      0.000s      0.068w     48 calls
LCCSD(T0): Form W                   :      0.050u      0.000s      0.021w     48 calls
LCCSD(T0): Form V                   :      0.000u      0.000s      0.001w     48 calls
Sort Triplets                       :      0.000u      0.000s      0.000w      1 calls
LCCSD(T) Iterations                 :      0.100u      0.000s      0.057w      1 calls
Compute (T) Energy                  :      0.000u      0.000s      0.004w      4 calls

--------------------------------------------------------------------------------------
DFH: sparsity prep                  :      0.000u      0.017s      0.005w      1 calls
| Libint2ERI::Libint2ERI            :      0.000u      0.017s      0.004w      1 calls
DFH: initialize()                   :      0.017u      0.000s      0.009w      1 calls
| Libint2ERI::Libint2ERI            :      0.000u      0.000s      0.002w      2 calls
| DFH: AO Construction              :      0.000u      0.000s      0.002w      1 calls
| DFH: AO-Met. Contraction          :      0.000u      0.000s      0.001w      1 calls
HF: Form core H                     :      0.000u      0.000s      0.001w      1 calls
HF: Form S/X                        :      0.000u      0.000s      0.000w      1 calls
HF: Guess                           :      0.033u      0.000s      0.016w      1 calls
| SAD Guess                         :      0.033u      0.000s      0.015w      1 calls
HF: Form G                          :      0.000u      0.000s      0.002w     11 calls
| JK: D                             :      0.000u      0.000s      0.000w     11 calls
| JK: USO2AO                        :      0.000u      0.000s      0.000w     11 calls
| JK: JK                            :      0.000u      0.000s      0.002w     11 calls
| | DFH: compute_JK()               :      0.000u      0.000s      0.002w     11 calls
| | | DFH: Grabbing AOs             :      0.000u      0.000s      0.000w     11 calls
| | | DFH: compute_J                :      0.000u      0.000s      0.000w     11 calls
| | | DFH: compute_K                :      0.000u      0.000s      0.001w     11 calls
| JK: AO2USO                        :      0.000u      0.000s      0.000w     11 calls
HF: Form F                          :      0.000u      0.000s      0.000w     11 calls
HF: Form D                          :      0.000u      0.000s      0.000w     11 calls
HF: DIIS                            :      0.167u      0.050s      0.210w     10 calls
HF: Form C                          :      0.000u      0.000s      0.002w     10 calls
Libint2ERI::Libint2ERI              :      0.000u      0.000s      0.003w      1 calls
DLPNO-CCSD(T)                       :      1.000u      0.000s      0.599w      1 calls
| DLPNO-CCSD                        :      0.650u      0.000s      0.388w      1 calls
| | Setup Orbitals                  :      0.000u      0.000s      0.001w      1 calls
| | | Local MOs                     :      0.000u      0.000s      0.001w      1 calls
| | | Projected AOs                 :      0.000u      0.000s      0.000w      1 calls
| | Overlap Ints                    :      0.017u      0.000s      0.003w      1 calls
| | | Construct Grid                :      0.000u      0.000s      0.001w      1 calls
| | | | build grid                  :      0.000u      0.000s      0.001w      1 calls
| | | | post-process grid           :      0.000u      0.000s      0.000w      1 calls
| | | Integration                   :      0.017u      0.000s      0.002w      1 calls
| | Dipole Ints                     :      0.000u      0.000s      0.001w      1 calls
| | Compute Metric                  :      0.000u      0.000s      0.001w      1 calls
| | | (K|L)                         :      0.000u      0.000s      0.001w      1 calls
| | | | Libint2ERI::Libint2ERI      :      0.000u      0.000s      0.000w      1 calls
| | Sparsity                        :      0.000u      0.000s      0.000w      3 calls
| | Crude DF Ints                   :      0.000u      0.000s      0.004w      1 calls
| | | (mn|K) -> (ia|K)              :      0.000u      0.000s      0.004w      1 calls
| | | | Libint2ERI::Libint2ERI      :      0.000u      0.000s      0.002w      1 calls
| | Crude Pair Prescreening         :      0.000u      0.000s      0.002w      1 calls
| | Refined DF Ints                 :      0.017u      0.000s      0.004w      1 calls
| | | (mn|K) -> (ia|K)              :      0.017u      0.000s      0.004w      1 calls
| | | | Libint2ERI::Libint2ERI      :      0.017u      0.000s      0.001w      1 calls
| | Refined Pair Prescreening       :      0.000u      0.000s      0.003w      1 calls
| | PNO-LMP2 Iterations             :      0.017u      0.000s      0.009w      1 calls
| | DF Ints                         :      0.017u      0.000s      0.008w      1 calls
| | | (mn|K)->(ij|K)                :      0.000u      0.000s      0.004w      1 calls
| | | | Libint2ERI::Libint2ERI      :      0.000u      0.000s      0.001w      1 calls
| | | (mn|K)->(ab|K)                :      0.017u      0.000s      0.004w      1 calls
| | | | Libint2ERI::Libint2ERI      :      0.017u      0.000s      0.001w      1 calls
| | CC Integrals                    :      0.083u      0.000s      0.051w      1 calls
| | | DLPNO-CCSD: Setup Integrals   :      0.067u      0.000s      0.024w     10 calls
| | | DLPNO-CCSD: J_ij_kj Integrals :      0.017u      0.000s      0.020w     10 calls
| | | DLPNO-CCSD: K_ij_kj Integrals :      0.000u      0.000s      0.005w     10 calls
| | | DLPNO-CCSD: Contract Integrals:      0.000u      0.000s      0.001w     10 calls
| | PNO Overlaps                    :      0.000u      0.000s      0.001w      1 calls
| | LCCSD                           :      0.500u      0.000s      0.299w      1 calls
| | | DLPNO-CCSD: T1 Ints           :      0.067u      0.000s      0.034w     14 calls
| | | DLPNO-CCSD: T1 Fock           :      0.117u      0.000s      0.063w     14 calls
| | | DLPNO-CCSD: Compute R1        :      0.000u      0.000s      0.007w     14 calls
| | | DLPNO-CCSD: Compute R2        :      0.317u      0.000s      0.189w     14 calls
| | | | DLPNO-CCSD: beta            :      0.050u      0.000s      0.033w     14 calls
| | | | DLPNO-CCSD: gamma           :      0.000u      0.000s      0.012w     14 calls
| | | | DLPNO-CCSD: delta           :      0.033u      0.000s      0.014w     14 calls
| | | | DLPNO-CCSD: Fkj double tilde:      0.000u      0.000s      0.004w     14 calls
| Triples Sparsity                  :      0.000u      0.000s      0.000w      2 calls
| TNO transform                     :      0.000u      0.000s      0.009w      3 calls
| LCCSD(T0)                         :      0.250u      0.000s      0.145w      3 calls
| | LCCSD(T0): Setup Integrals      :      0.067u      0.000s      0.047w     48 calls
| | LCCSD(T0): Contract Integrals   :      0.117u      0.000s      0.068w     48 calls
| | LCCSD(T0): Form W               :      0.050u      0.000s      0.021w     48 calls
| | LCCSD(T0): Form V               :      0.000u      0.000s      0.001w     48 calls
| Sort Triplets                     :      0.000u      0.000s      0.000w      1 calls
| LCCSD(T) Iterations               :      0.100u      0.000s      0.057w      1 calls
| | Compute (T) Energy              :      0.000u      0.000s      0.004w      4 calls
DLPNO-CCSD: Compute R1              :      0.017u      0.000s      0.027w     50 calls
DLPNO-CCSD: Compute R2              :      1.183u      0.000s      0.713w     50 calls
| DLPNO-CCSD: beta                  :      0.250u      0.000s      0.122w     50 calls
| DLPNO-CCSD: gamma                 :      0.033u      0.000s      0.044w     50 calls
| DLPNO-CCSD: delta                 :      0.067u      0.000s      0.051w     50 calls
| DLPNO-CCSD: Fkj double tilde      :      0.017u      0.000s      0.015w     50 calls

**************************************************************************************

Host: b6-10

Timers On : Tue Aug 13 23:27:51 2024
Timers Off: Tue Aug 13 23:27:54 2024

Wall Time:        2.74 seconds

                                                       Time (seconds)
Module                                       User      System        Wall        Calls
DFH: sparsity prep                  :      0.017u      0.000s      0.005w      1 calls
Libint2ERI::Libint2ERI              :      0.017u      0.000s      0.015w      9 calls
DFH: initialize()                   :      0.000u      0.000s      0.009w      1 calls
DFH: AO Construction                :      0.000u      0.000s      0.002w      1 calls
DFH: AO-Met. Contraction            :      0.000u      0.000s      0.001w      1 calls
HF: Form core H                     :      0.000u      0.000s      0.001w      1 calls
HF: Form S/X                        :      0.000u      0.000s      0.000w      1 calls
HF: Guess                           :      0.017u      0.000s      0.016w      1 calls
SAD Guess                           :      0.017u      0.000s      0.015w      1 calls
HF: Form G                          :      0.000u      0.000s      0.002w     11 calls
JK: D                               :      0.000u      0.000s      0.000w     11 calls
JK: USO2AO                          :      0.000u      0.000s      0.000w     11 calls
JK: JK                              :      0.000u      0.000s      0.002w     11 calls
DFH: compute_JK()                   :      0.000u      0.000s      0.002w     11 calls
DFH: Grabbing AOs                   :      0.000u      0.000s      0.000w     11 calls
DFH: compute_J                      :      0.000u      0.000s      0.000w     11 calls
DFH: compute_K                      :      0.000u      0.000s      0.001w     11 calls
JK: AO2USO                          :      0.000u      0.000s      0.000w     11 calls
HF: Form F                          :      0.000u      0.000s      0.000w     11 calls
HF: Form D                          :      0.000u      0.000s      0.000w     11 calls
HF: DIIS                            :      0.167u      0.033s      0.144w     10 calls
HF: Form C                          :      0.000u      0.000s      0.002w     10 calls
DLPNO-CCSD(T)                       :      1.000u      0.000s      0.605w      1 calls
DLPNO-CCSD                          :      0.650u      0.000s      0.392w      1 calls
Setup Orbitals                      :      0.000u      0.000s      0.001w      1 calls
Local MOs                           :      0.000u      0.000s      0.001w      1 calls
Projected AOs                       :      0.000u      0.000s      0.000w      1 calls
Overlap Ints                        :      0.017u      0.000s      0.003w      1 calls
Construct Grid                      :      0.000u      0.000s      0.001w      1 calls
build grid                          :      0.000u      0.000s      0.001w      1 calls
post-process grid                   :      0.000u      0.000s      0.000w      1 calls
Integration                         :      0.017u      0.000s      0.002w      1 calls
Dipole Ints                         :      0.000u      0.000s      0.001w      1 calls
Compute Metric                      :      0.000u      0.000s      0.001w      1 calls
(K|L)                               :      0.000u      0.000s      0.001w      1 calls
Sparsity                            :      0.000u      0.000s      0.000w      3 calls
Crude DF Ints                       :      0.000u      0.000s      0.005w      1 calls
(mn|K) -> (ia|K)                    :      0.017u      0.000s      0.009w      2 calls
Crude Pair Prescreening             :      0.000u      0.000s      0.002w      1 calls
Refined DF Ints                     :      0.017u      0.000s      0.004w      1 calls
Refined Pair Prescreening           :      0.000u      0.000s      0.003w      1 calls
PNO-LMP2 Iterations                 :      0.017u      0.000s      0.009w      1 calls
DF Ints                             :      0.017u      0.000s      0.008w      1 calls
(mn|K)->(ij|K)                      :      0.000u      0.000s      0.004w      1 calls
(mn|K)->(ab|K)                      :      0.017u      0.000s      0.004w      1 calls
CC Integrals                        :      0.083u      0.000s      0.051w      1 calls
DLPNO-CCSD: Setup Integrals         :      0.050u      0.000s      0.024w     10 calls
DLPNO-CCSD: J_ij_kj Integrals       :      0.017u      0.000s      0.020w     10 calls
DLPNO-CCSD: K_ij_kj Integrals       :      0.017u      0.000s      0.005w     10 calls
DLPNO-CCSD: Contract Integrals      :      0.000u      0.000s      0.001w     10 calls
PNO Overlaps                        :      0.000u      0.000s      0.001w      1 calls
LCCSD                               :      0.500u      0.000s      0.303w      1 calls
DLPNO-CCSD: T1 Ints                 :      0.033u      0.000s      0.034w     14 calls
DLPNO-CCSD: T1 Fock                 :      0.133u      0.000s      0.064w     14 calls
DLPNO-CCSD: Compute R1              :      0.033u      0.000s      0.034w     64 calls
DLPNO-CCSD: Compute R2              :      1.500u      0.000s      0.911w     64 calls
DLPNO-CCSD: beta                    :      0.233u      0.000s      0.156w     64 calls
DLPNO-CCSD: gamma                   :      0.100u      0.000s      0.058w     64 calls
DLPNO-CCSD: delta                   :      0.133u      0.000s      0.066w     64 calls
DLPNO-CCSD: Fkj double tilde        :      0.017u      0.000s      0.020w     64 calls
Triples Sparsity                    :      0.000u      0.000s      0.000w      2 calls
TNO transform                       :      0.033u      0.000s      0.009w      3 calls
LCCSD(T0)                           :      0.233u      0.000s      0.146w      3 calls
LCCSD(T0): Setup Integrals          :      0.033u      0.000s      0.047w     48 calls
LCCSD(T0): Contract Integrals       :      0.117u      0.000s      0.068w     48 calls
LCCSD(T0): Form W                   :      0.067u      0.000s      0.021w     48 calls
LCCSD(T0): Form V                   :      0.017u      0.000s      0.001w     48 calls
Sort Triplets                       :      0.000u      0.000s      0.000w      1 calls
LCCSD(T) Iterations                 :      0.083u      0.000s      0.057w      1 calls
Compute (T) Energy                  :      0.000u      0.000s      0.004w      4 calls

--------------------------------------------------------------------------------------
DFH: sparsity prep                  :      0.017u      0.000s      0.005w      1 calls
| Libint2ERI::Libint2ERI            :      0.017u      0.000s      0.004w      1 calls
DFH: initialize()                   :      0.000u      0.000s      0.009w      1 calls
| Libint2ERI::Libint2ERI            :      0.000u      0.000s      0.002w      2 calls
| DFH: AO Construction              :      0.000u      0.000s      0.002w      1 calls
| DFH: AO-Met. Contraction          :      0.000u      0.000s      0.001w      1 calls
HF: Form core H                     :      0.000u      0.000s      0.001w      1 calls
HF: Form S/X                        :      0.000u      0.000s      0.000w      1 calls
HF: Guess                           :      0.017u      0.000s      0.016w      1 calls
| SAD Guess                         :      0.017u      0.000s      0.015w      1 calls
HF: Form G                          :      0.000u      0.000s      0.002w     11 calls
| JK: D                             :      0.000u      0.000s      0.000w     11 calls
| JK: USO2AO                        :      0.000u      0.000s      0.000w     11 calls
| JK: JK                            :      0.000u      0.000s      0.002w     11 calls
| | DFH: compute_JK()               :      0.000u      0.000s      0.002w     11 calls
| | | DFH: Grabbing AOs             :      0.000u      0.000s      0.000w     11 calls
| | | DFH: compute_J                :      0.000u      0.000s      0.000w     11 calls
| | | DFH: compute_K                :      0.000u      0.000s      0.001w     11 calls
| JK: AO2USO                        :      0.000u      0.000s      0.000w     11 calls
HF: Form F                          :      0.000u      0.000s      0.000w     11 calls
HF: Form D                          :      0.000u      0.000s      0.000w     11 calls
HF: DIIS                            :      0.167u      0.033s      0.144w     10 calls
HF: Form C                          :      0.000u      0.000s      0.002w     10 calls
Libint2ERI::Libint2ERI              :      0.000u      0.000s      0.003w      1 calls
DLPNO-CCSD(T)                       :      1.000u      0.000s      0.605w      1 calls
| DLPNO-CCSD                        :      0.650u      0.000s      0.392w      1 calls
| | Setup Orbitals                  :      0.000u      0.000s      0.001w      1 calls
| | | Local MOs                     :      0.000u      0.000s      0.001w      1 calls
| | | Projected AOs                 :      0.000u      0.000s      0.000w      1 calls
| | Overlap Ints                    :      0.017u      0.000s      0.003w      1 calls
| | | Construct Grid                :      0.000u      0.000s      0.001w      1 calls
| | | | build grid                  :      0.000u      0.000s      0.001w      1 calls
| | | | post-process grid           :      0.000u      0.000s      0.000w      1 calls
| | | Integration                   :      0.017u      0.000s      0.002w      1 calls
| | Dipole Ints                     :      0.000u      0.000s      0.001w      1 calls
| | Compute Metric                  :      0.000u      0.000s      0.001w      1 calls
| | | (K|L)                         :      0.000u      0.000s      0.001w      1 calls
| | | | Libint2ERI::Libint2ERI      :      0.000u      0.000s      0.000w      1 calls
| | Sparsity                        :      0.000u      0.000s      0.000w      3 calls
| | Crude DF Ints                   :      0.000u      0.000s      0.005w      1 calls
| | | (mn|K) -> (ia|K)              :      0.000u      0.000s      0.005w      1 calls
| | | | Libint2ERI::Libint2ERI      :      0.000u      0.000s      0.002w      1 calls
| | Crude Pair Prescreening         :      0.000u      0.000s      0.002w      1 calls
| | Refined DF Ints                 :      0.017u      0.000s      0.004w      1 calls
| | | (mn|K) -> (ia|K)              :      0.017u      0.000s      0.004w      1 calls
| | | | Libint2ERI::Libint2ERI      :      0.000u      0.000s      0.001w      1 calls
| | Refined Pair Prescreening       :      0.000u      0.000s      0.003w      1 calls
| | PNO-LMP2 Iterations             :      0.017u      0.000s      0.009w      1 calls
| | DF Ints                         :      0.017u      0.000s      0.008w      1 calls
| | | (mn|K)->(ij|K)                :      0.000u      0.000s      0.004w      1 calls
| | | | Libint2ERI::Libint2ERI      :      0.000u      0.000s      0.001w      1 calls
| | | (mn|K)->(ab|K)                :      0.017u      0.000s      0.004w      1 calls
| | | | Libint2ERI::Libint2ERI      :      0.000u      0.000s      0.001w      1 calls
| | CC Integrals                    :      0.083u      0.000s      0.051w      1 calls
| | | DLPNO-CCSD: Setup Integrals   :      0.050u      0.000s      0.024w     10 calls
| | | DLPNO-CCSD: J_ij_kj Integrals :      0.017u      0.000s      0.020w     10 calls
| | | DLPNO-CCSD: K_ij_kj Integrals :      0.017u      0.000s      0.005w     10 calls
| | | DLPNO-CCSD: Contract Integrals:      0.000u      0.000s      0.001w     10 calls
| | PNO Overlaps                    :      0.000u      0.000s      0.001w      1 calls
| | LCCSD                           :      0.500u      0.000s      0.303w      1 calls
| | | DLPNO-CCSD: T1 Ints           :      0.033u      0.000s      0.034w     14 calls
| | | DLPNO-CCSD: T1 Fock           :      0.133u      0.000s      0.064w     14 calls
| | | DLPNO-CCSD: Compute R1        :      0.000u      0.000s      0.007w     14 calls
| | | DLPNO-CCSD: Compute R2        :      0.300u      0.000s      0.192w     14 calls
| | | | DLPNO-CCSD: beta            :      0.050u      0.000s      0.033w     14 calls
| | | | DLPNO-CCSD: gamma           :      0.017u      0.000s      0.012w     14 calls
| | | | DLPNO-CCSD: delta           :      0.033u      0.000s      0.014w     14 calls
| | | | DLPNO-CCSD: Fkj double tilde:      0.000u      0.000s      0.004w     14 calls
| Triples Sparsity                  :      0.000u      0.000s      0.000w      2 calls
[...]
| | DFH: compute_JK()               :      0.250u      0.017s      0.006w     12 calls
| | | DFH: Grabbing AOs             :      0.000u      0.000s      0.000w     12 calls
| | | DFH: compute_J                :      0.050u      0.000s      0.001w     12 calls
| | | DFH: compute_K                :      0.117u      0.000s      0.003w     12 calls
| JK: AO2USO                        :      0.000u      0.000s      0.000w     12 calls
HF: Form F                          :      0.033u      0.000s      0.000w     12 calls
HF: Form D                          :      0.017u      0.000s      0.001w     12 calls
HF: DIIS                            :     10.150u      0.400s      0.251w     11 calls
HF: Form C                          :      0.450u      0.017s      0.010w     11 calls
Libint2ERI::Libint2ERI              :      0.450u      0.000s      0.009w      1 calls
DLPNO-CCSD(T)                       :    145.700u      1.250s      2.807w      1 calls
| DLPNO-CCSD                        :     52.733u      0.817s      1.050w      1 calls
| | Setup Orbitals                  :      0.100u      0.000s      0.003w      1 calls
| | | Local MOs                     :      0.067u      0.000s      0.002w      1 calls
| | | Projected AOs                 :      0.033u      0.000s      0.000w      1 calls
| | Overlap Ints                    :      0.133u      0.000s      0.003w      1 calls
| | | Construct Grid                :      0.083u      0.000s      0.002w      1 calls
| | | | build grid                  :      0.050u      0.000s      0.001w      1 calls
| | | | post-process grid           :      0.033u      0.000s      0.000w      1 calls
| | | Integration                   :      0.017u      0.000s      0.000w      1 calls
| | Dipole Ints                     :      0.350u      0.000s      0.007w      1 calls
| | Compute Metric                  :      0.233u      0.017s      0.005w      1 calls
| | | (K|L)                         :      0.233u      0.017s      0.005w      1 calls
| | | | Libint2ERI::Libint2ERI      :      0.050u      0.000s      0.001w     32 calls
| | Sparsity                        :      0.100u      0.000s      0.002w      3 calls
| | Crude DF Ints                   :      1.833u      0.050s      0.037w      1 calls
| | | (mn|K) -> (ia|K)              :      1.817u      0.050s      0.036w      1 calls
| | | | Libint2ERI::Libint2ERI      :      0.383u      0.017s      0.008w      1 calls
| | Crude Pair Prescreening         :      0.267u      0.017s      0.005w      1 calls
| | Refined DF Ints                 :      1.650u      0.033s      0.033w      1 calls
| | | (mn|K) -> (ia|K)              :      1.617u      0.033s      0.032w      1 calls
| | | | Libint2ERI::Libint2ERI      :      0.383u      0.000s      0.008w      1 calls
| | Refined Pair Prescreening       :      0.383u      0.000s      0.008w      1 calls
| | PNO-LMP2 Iterations             :      2.133u      0.050s      0.042w      1 calls
| | Recompute PNOs                  :      0.067u      0.000s      0.001w      1 calls
| | DF Ints                         :      3.267u      0.100s      0.065w      1 calls
| | | (mn|K)->(ij|K)                :      1.600u      0.050s      0.032w      1 calls
| | | | Libint2ERI::Libint2ERI      :      0.367u      0.017s      0.007w      1 calls
| | | (mn|K)->(ab|K)                :      1.617u      0.050s      0.033w      1 calls
| | | | Libint2ERI::Libint2ERI      :      0.367u      0.017s      0.008w      1 calls
| | CC Integrals                    :     16.417u      0.233s      0.344w      1 calls
| | | DLPNO-CCSD: Setup Integrals   :     10.833u      0.100s      0.226w      2 calls
| | | DLPNO-CCSD: J_ij_kj Integrals :      3.350u      0.067s      0.072w      2 calls
| | | DLPNO-CCSD: K_ij_kj Integrals :      0.600u      0.000s      0.012w      2 calls
| | | DLPNO-CCSD: Contract Integrals:      0.183u      0.017s      0.004w      2 calls
| | PNO Overlaps                    :      0.067u      0.000s      0.001w      1 calls
| | LCCSD                           :     25.733u      0.317s      0.494w      1 calls
| | | DLPNO-CCSD: T1 Ints           :      4.033u      0.017s      0.077w     13 calls
| | | DLPNO-CCSD: T1 Fock           :      6.017u      0.100s      0.117w     13 calls
| | | DLPNO-CCSD: Compute R1        :      0.383u      0.000s      0.008w     13 calls
| | | DLPNO-CCSD: Compute R2        :     13.167u      0.150s      0.253w     13 calls
| | | | DLPNO-CCSD: beta            :      2.217u      0.017s      0.043w     13 calls
| | | | DLPNO-CCSD: gamma           :      0.450u      0.000s      0.009w     13 calls
| | | | DLPNO-CCSD: delta           :      0.500u      0.000s      0.009w     13 calls
| | | | DLPNO-CCSD: Fkj double tilde:      0.150u      0.000s      0.003w     13 calls
| | | DLPNO-CCSD: Compute R2 (weak pairs):      0.267u      0.000s      0.005w     13 calls
| Triples Sparsity                  :      0.033u      0.000s      0.001w      2 calls
| TNO transform                     :      0.483u      0.000s      0.009w      3 calls
| LCCSD(T0)                         :     76.817u      0.350s      1.452w      3 calls
| | LCCSD(T0): Setup Integrals      :     49.000u      0.117s      0.926w     10 calls
| | LCCSD(T0): Contract Integrals   :     16.983u      0.033s      0.318w     10 calls
| | LCCSD(T0): Form W               :      1.383u      0.000s      0.027w     10 calls
| | LCCSD(T0): Form V               :      0.033u      0.000s      0.001w     10 calls
| Sort Triplets                     :      0.000u      0.000s      0.000w      1 calls
| LCCSD(T) Iterations               :     15.617u      0.083s      0.295w      1 calls
| | Compute (T) Energy              :      0.650u      0.000s      0.012w      6 calls
DLPNO-CCSD: T1 Ints                 :      4.100u      0.033s      0.078w     14 calls
DLPNO-CCSD: T1 Fock                 :      6.800u      0.083s      0.130w     14 calls
DLPNO-CCSD: Compute R1              :      0.467u      0.000s      0.009w     14 calls
DLPNO-CCSD: Compute R2              :     15.400u      0.217s      0.296w     14 calls
| DLPNO-CCSD: beta                  :      2.517u      0.017s      0.048w     14 calls
| DLPNO-CCSD: gamma                 :      0.467u      0.000s      0.010w     14 calls
| DLPNO-CCSD: delta                 :      0.617u      0.000s      0.010w     14 calls
| DLPNO-CCSD: Fkj double tilde      :      0.100u      0.000s      0.003w     14 calls
DLPNO-CCSD: Compute R2 (weak pairs) :      0.083u      0.000s      0.002w     14 calls

**************************************************************************************

Host: b6-12

Timers On : Mon Oct 28 16:51:41 2024
Timers Off: Mon Oct 28 16:52:28 2024

Wall Time:       47.34 seconds

                                                       Time (seconds)
Module                                       User      System        Wall        Calls
Total PK formation time             :      8.950u      0.350s      0.384w      1 calls
Libint2ERI::Libint2ERI              :      7.467u      0.333s      0.345w     70 calls
HF: Form core H                     :      1.000u      0.033s      0.021w      1 calls
HF: Form S/X                        :      0.050u      0.000s      0.001w      1 calls
HF: Guess                           :      6.817u      0.767s      0.150w      1 calls
SAD Guess                           :      6.783u      0.750s      0.150w      1 calls
HF: Form G                          :      0.650u      0.017s      0.013w     12 calls
JK: D                               :      0.000u      0.000s      0.000w     12 calls
JK: USO2AO                          :      0.000u      0.000s      0.000w     12 calls
JK: JK                              :      0.633u      0.017s      0.012w     12 calls
PK computes JK                      :      0.633u      0.017s      0.012w     12 calls
JK: AO2USO                          :      0.000u      0.000s      0.000w     12 calls
HF: Form F                          :      0.017u      0.000s      0.000w     12 calls
HF: Form D                          :      0.000u      0.000s      0.000w     12 calls
HF: DIIS                            :     11.200u      0.383s      0.226w     11 calls
HF: Form C                          :      0.283u      0.017s      0.006w     11 calls
DLPNO-CCSD(T)                       :    146.050u      1.217s      2.771w      1 calls
DLPNO-CCSD                          :     52.933u      0.833s      1.012w      1 calls
Setup Orbitals                      :      0.050u      0.017s      0.002w      1 calls
Local MOs                           :      0.033u      0.017s      0.002w      1 calls
Projected AOs                       :      0.017u      0.000s      0.000w      1 calls
Overlap Ints                        :      0.150u      0.000s      0.003w      1 calls
Construct Grid                      :      0.083u      0.000s      0.002w      1 calls
build grid                          :      0.067u      0.000s      0.001w      1 calls
post-process grid                   :      0.017u      0.000s      0.000w      1 calls
Integration                         :      0.033u      0.000s      0.000w      1 calls
Dipole Ints                         :      0.250u      0.000s      0.005w      1 calls
Compute Metric                      :      0.200u      0.000s      0.004w      1 calls
(K|L)                               :      0.200u      0.000s      0.004w      1 calls
Sparsity                            :      0.100u      0.000s      0.002w      3 calls
Crude DF Ints                       :      1.833u      0.050s      0.035w      1 calls
(mn|K) -> (ia|K)                    :      3.467u      0.100s      0.067w      2 calls
Crude Pair Prescreening             :      0.267u      0.017s      0.005w      1 calls
Refined DF Ints                     :      1.683u      0.050s      0.033w      1 calls
Refined Pair Prescreening           :      0.400u      0.000s      0.008w      1 calls
PNO-LMP2 Iterations                 :      2.183u      0.050s      0.042w      1 calls
Recompute PNOs                      :      0.083u      0.000s      0.001w      1 calls
DF Ints                             :      3.367u      0.100s      0.065w      1 calls
(mn|K)->(ij|K)                      :      1.633u      0.050s      0.032w      1 calls
(mn|K)->(ab|K)                      :      1.683u      0.050s      0.032w      1 calls
CC Integrals                        :     17.400u      0.267s      0.332w      1 calls
DLPNO-CCSD: Setup Integrals         :      6.433u      0.083s      0.123w      1 calls
DLPNO-CCSD: J_ij_kj Integrals       :      3.450u      0.000s      0.065w      1 calls
DLPNO-CCSD: K_ij_kj Integrals       :      0.650u      0.017s      0.012w      1 calls
DLPNO-CCSD: Contract Integrals      :      0.150u      0.000s      0.003w      1 calls
PNO Overlaps                        :      0.067u      0.000s      0.001w      1 calls
LCCSD                               :     24.900u      0.283s      0.474w      1 calls
DLPNO-CCSD: T1 Ints                 :      8.633u      0.133s      0.163w     28 calls
DLPNO-CCSD: T1 Fock                 :     13.567u      0.133s      0.259w     28 calls
DLPNO-CCSD: Compute R1              :      0.967u      0.017s      0.018w     28 calls
DLPNO-CCSD: Compute R2              :     28.467u      0.250s      0.544w     28 calls
DLPNO-CCSD: beta                    :      4.833u      0.017s      0.093w     28 calls
DLPNO-CCSD: gamma                   :      1.017u      0.033s      0.019w     28 calls
DLPNO-CCSD: delta                   :      1.067u      0.000s      0.020w     28 calls
DLPNO-CCSD: Fkj double tilde        :      0.333u      0.000s      0.007w     28 calls
DLPNO-CCSD: Compute R2 (weak pairs) :      0.000u      0.000s      0.000w     28 calls
Triples Sparsity                    :      0.033u      0.000s      0.001w      2 calls
TNO transform                       :      0.483u      0.000s      0.009w      3 calls
LCCSD(T0)                           :     76.733u      0.300s      1.449w      3 calls
LCCSD(T0): Setup Integrals          :     49.950u      0.100s      0.944w     11 calls
LCCSD(T0): Contract Integrals       :     17.800u      0.067s      0.335w     11 calls
LCCSD(T0): Form W                   :      1.583u      0.000s      0.029w     11 calls
LCCSD(T0): Form V                   :      0.050u      0.000s      0.001w     11 calls
Sort Triplets                       :      0.000u      0.000s      0.000w      1 calls
LCCSD(T) Iterations                 :     15.867u      0.083s      0.300w      1 calls
Compute (T) Energy                  :      0.650u      0.000s      0.012w      6 calls

--------------------------------------------------------------------------------------
Total PK formation time             :      8.950u      0.350s      0.384w      1 calls
| Libint2ERI::Libint2ERI            :      5.400u      0.267s      0.306w     33 calls
HF: Form core H                     :      1.000u      0.033s      0.021w      1 calls
HF: Form S/X                        :      0.050u      0.000s      0.001w      1 calls
HF: Guess                           :      6.817u      0.767s      0.150w      1 calls
| SAD Guess                         :      6.783u      0.750s      0.150w      1 calls
HF: Form G                          :      0.650u      0.017s      0.013w     12 calls
| JK: D                             :      0.000u      0.000s      0.000w     12 calls
| JK: USO2AO                        :      0.000u      0.000s      0.000w     12 calls
| JK: JK                            :      0.633u      0.017s      0.012w     12 calls
| | PK computes JK                  :      0.633u      0.017s      0.012w     12 calls
| JK: AO2USO                        :      0.000u      0.000s      0.000w     12 calls
HF: Form F                          :      0.017u      0.000s      0.000w     12 calls
HF: Form D                          :      0.000u      0.000s      0.000w     12 calls
HF: DIIS                            :     11.200u      0.383s      0.226w     11 calls
HF: Form C                          :      0.283u      0.017s      0.006w     11 calls
Libint2ERI::Libint2ERI              :      0.450u      0.033s      0.009w      1 calls
DLPNO-CCSD(T)                       :    146.050u      1.217s      2.771w      1 calls
| DLPNO-CCSD                        :     52.933u      0.833s      1.012w      1 calls
| | Setup Orbitals                  :      0.050u      0.017s      0.002w      1 calls
| | | Local MOs                     :      0.033u      0.017s      0.002w      1 calls
| | | Projected AOs                 :      0.017u      0.000s      0.000w      1 calls
| | Overlap Ints                    :      0.150u      0.000s      0.003w      1 calls
| | | Construct Grid                :      0.083u      0.000s      0.002w      1 calls
| | | | build grid                  :      0.067u      0.000s      0.001w      1 calls
| | | | post-process grid           :      0.017u      0.000s      0.000w      1 calls
| | | Integration                   :      0.033u      0.000s      0.000w      1 calls
| | Dipole Ints                     :      0.250u      0.000s      0.005w      1 calls
| | Compute Metric                  :      0.200u      0.000s      0.004w      1 calls
| | | (K|L)                         :      0.200u      0.000s      0.004w      1 calls
| | | | Libint2ERI::Libint2ERI      :      0.083u      0.000s      0.001w     32 calls
| | Sparsity                        :      0.100u      0.000s      0.002w      3 calls
| | Crude DF Ints                   :      1.833u      0.050s      0.035w      1 calls
| | | (mn|K) -> (ia|K)              :      1.800u      0.050s      0.035w      1 calls
| | | | Libint2ERI::Libint2ERI      :      0.383u      0.000s      0.007w      1 calls
| | Crude Pair Prescreening         :      0.267u      0.017s      0.005w      1 calls
| | Refined DF Ints                 :      1.683u      0.050s      0.033w      1 calls
| | | (mn|K) -> (ia|K)              :      1.667u      0.050s      0.032w      1 calls
| | | | Libint2ERI::Libint2ERI      :      0.400u      0.000s      0.007w      1 calls
| | Refined Pair Prescreening       :      0.400u      0.000s      0.008w      1 calls
| | PNO-LMP2 Iterations             :      2.183u      0.050s      0.042w      1 calls
| | Recompute PNOs                  :      0.083u      0.000s      0.001w      1 calls
| | DF Ints                         :      3.367u      0.100s      0.065w      1 calls
| | | (mn|K)->(ij|K)                :      1.633u      0.050s      0.032w      1 calls
| | | | Libint2ERI::Libint2ERI      :      0.367u      0.017s      0.007w      1 calls
| | | (mn|K)->(ab|K)                :      1.683u      0.050s      0.032w      1 calls
| | | | Libint2ERI::Libint2ERI      :      0.383u      0.017s      0.007w      1 calls
| | CC Integrals                    :     17.400u      0.267s      0.332w      1 calls
| | | DLPNO-CCSD: Setup Integrals   :      6.433u      0.083s      0.123w      1 calls
| | | DLPNO-CCSD: J_ij_kj Integrals :      3.450u      0.000s      0.065w      1 calls
| | | DLPNO-CCSD: K_ij_kj Integrals :      0.650u      0.017s      0.012w      1 calls
| | | DLPNO-CCSD: Contract Integrals:      0.150u      0.000s      0.003w      1 calls
| | PNO Overlaps                    :      0.067u      0.000s      0.001w      1 calls
| | LCCSD                           :     24.900u      0.283s      0.474w      1 calls
| | | DLPNO-CCSD: T1 Ints           :      4.033u      0.067s      0.076w     13 calls
| | | DLPNO-CCSD: T1 Fock           :      6.067u      0.033s      0.115w     13 calls
| | | DLPNO-CCSD: Compute R1        :      0.417u      0.017s      0.008w     13 calls
| | | DLPNO-CCSD: Compute R2        :     12.450u      0.117s      0.237w     13 calls
| | | | DLPNO-CCSD: beta            :      2.117u      0.000s      0.041w     13 calls
| | | | DLPNO-CCSD: gamma           :      0.417u      0.017s      0.008w     13 calls
| | | | DLPNO-CCSD: delta           :      0.467u      0.000s      0.009w     13 calls
| | | | DLPNO-CCSD: Fkj double tilde:      0.117u      0.000s      0.003w     13 calls
| | | DLPNO-CCSD: Compute R2 (weak pairs):      0.000u      0.000s      0.000w     13 calls
| Triples Sparsity                  :      0.033u      0.000s      0.001w      2 calls
| TNO transform                     :      0.483u      0.000s      0.009w      3 calls
| LCCSD(T0)                         :     76.733u      0.300s      1.449w      3 calls
| | LCCSD(T0): Setup Integrals      :     49.950u      0.100s      0.944w     11 calls
| | LCCSD(T0): Contract Integrals   :     17.800u      0.067s      0.335w     11 calls
| | LCCSD(T0): Form W               :      1.583u      0.000s      0.029w     11 calls
| | LCCSD(T0): Form V               :      0.050u      0.000s      0.001w     11 calls
| Sort Triplets                     :      0.000u      0.000s      0.000w      1 calls
| LCCSD(T) Iterations               :     15.867u      0.083s      0.300w      1 calls
| | Compute (T) Energy              :      0.650u      0.000s      0.012w      6 calls
DLPNO-CCSD: T1 Ints                 :      4.600u      0.067s      0.087w     15 calls
DLPNO-CCSD: T1 Fock                 :      7.500u      0.100s      0.143w     15 calls
DLPNO-CCSD: Compute R1              :      0.550u      0.000s      0.010w     15 calls
DLPNO-CCSD: Compute R2              :     16.017u      0.133s      0.306w     15 calls
| DLPNO-CCSD: beta                  :      2.717u      0.017s      0.052w     15 calls
| DLPNO-CCSD: gamma                 :      0.600u      0.017s      0.011w     15 calls
| DLPNO-CCSD: delta                 :      0.600u      0.000s      0.011w     15 calls
| DLPNO-CCSD: Fkj double tilde      :      0.217u      0.000s      0.004w     15 calls
DLPNO-CCSD: Compute R2 (weak pairs) :      0.000u      0.000s      0.000w     15 calls

**************************************************************************************
