
    -----------------------------------------------------------------------
          Psi4: An Open-Source Ab Initio Electronic Structure Package
                               Psi4 1.10a1.dev53 

                         Git: Rev {dlpno_ccsd_t_weak_pairs} 6358823 dirty


    D. G. A. Smith, L. A. Burns, A. C. Simmonett, R. M. Parrish,
    M. C. Schieber, R. Galvelis, P. Kraus, H. Kruse, R. Di Remigio,
    A. Alenaizan, A. M. James, S. Lehtola, J. P. Misiewicz, M. Scheurer,
    R. A. Shaw, J. B. Schriber, Y. Xie, Z. L. Glick, D. A. Sirianni,
    J. S. O'Brien, J. M. Waldrop, A. Kumar, E. G. Hohenstein,
    B. P. Pritchard, B. R. Brooks, H. F. Schaefer III, A. Yu. Sokolov,
    K. Patkowski, A. E. DePrince III, U. Bozkaya, R. A. King,
    F. A. Evangelista, J. M. Turney, T. D. Crawford, C. D. Sherrill,
    J. Chem. Phys. 152(18) 184108 (2020). https://doi.org/10.1063/5.0006002

                            Additional Code Authors
    E. T. Seidl, C. L. Janssen, E. F. Valeev, M. L. Leininger,
    J. F. Gonthier, R. M. Richard, H. R. McAlexander, M. Saitow, X. Wang,
    P. Verma, M. H. Lechner, A. Jiang, S. Behnle, A. G. Heide,
    M. F. Herbst, and D. L. Poole

             Previous Authors, Complete List of Code Contributors,
                       and Citations for Specific Modules
    https://github.com/psi4/psi4/blob/master/codemeta.json
    https://github.com/psi4/psi4/graphs/contributors
    http://psicode.org/psi4manual/master/introduction.html#citing-psifour

    -----------------------------------------------------------------------


    Psi4 started on: Monday, 28 October 2024 03:30PM

    Process ID: 124989
    Host:       b6-13
    PSIDATADIR: /home/aj48384/github/psi4/objdir_p4sums/stage/share/psi4
    Memory:     500.0 MiB
    Threads:    32
    
  ==> Input File <==

--------------------------------------------------------------------------

# PYTHONPATH must include directory above plugin directory.
#     Define either externally or here, then import plugin.
sys.path.insert(0, './..')
import dlpno_ccsdt_q

molecule {
  0 1
  @O  -1.551007  -0.114520   0.000000
  @H  -1.934259   0.762503   0.000000
  @H  -0.599677   0.040712   0.000000
  O   1.350625   0.111469   0.000000
  H   1.680398  -0.373741  -0.758561
  H   1.680398  -0.373741   0.758561
  symmetry c1
}

set {
  scf_type df
  mp2_type df
  basis cc-pvdz
  df_basis_mp2 cc-pvdz-ri
  pno_convergence tight
  freeze_core true
  e_convergence 1.0e-6
  r_convergence 1.0e-6
  clear_ccsd_integrals false
}

set dlpno_ccsdt_q {
  print 1
  dlpno_cc3 false
}

energy('dlpno_ccsdt_q')

dlpno_ccsdt_q.exampleFN()
--------------------------------------------------------------------------

Scratch directory: /tmp/
   => Libint2 <=

    Primary   basis highest AM E, G, H:  6, 6, 3
    Auxiliary basis highest AM E, G, H:  7, 7, 4
    Onebody   basis highest AM E, G, H:  -, -, -
    Solid Harmonics ordering:            Gaussian

*** tstart() called on b6-13
*** at Mon Oct 28 15:30:48 2024

   => Loading Basis Set <=

    Name: CC-PVDZ
    Role: ORBITAL
    Keyword: BASIS
    atoms 1, 4     entry O          line   198 file /home/aj48384/github/psi4/objdir_p4sums/stage/share/psi4/basis/cc-pvdz.gbs 
    atoms 2-3, 5-6 entry H          line    22 file /home/aj48384/github/psi4/objdir_p4sums/stage/share/psi4/basis/cc-pvdz.gbs 


         ---------------------------------------------------------
                                   SCF
               by Justin Turney, Rob Parrish, Andy Simmonett
                          and Daniel G. A. Smith
                              RHF Reference
                       32 Threads,    500 MiB Core
         ---------------------------------------------------------

  ==> Geometry <==

    Molecular point group: c1
    Full point group: Cs

    Geometry (in Angstrom), charge = 0, multiplicity = 1:

       Center              X                  Y                   Z               Mass       
    ------------   -----------------  -----------------  -----------------  -----------------
      Gh(O)          -1.485163346101    -0.114724564047     0.000000000000    15.994914619570
      Gh(H)          -1.868415346101     0.762298435953     0.000000000000     1.007825032230
      Gh(H)          -0.533833346101     0.040507435953     0.000000000000     1.007825032230
         O            1.416468653899     0.111264435953     0.000000000000    15.994914619570
         H            1.746241653899    -0.373945564047    -0.758561000000     1.007825032230
         H            1.746241653899    -0.373945564047     0.758561000000     1.007825032230

  Running in c1 symmetry.

  Rotational constants: A =      7.15151  B =      0.21457  C =      0.21447 [cm^-1]
  Rotational constants: A = 214396.91837  B =   6432.69061  C =   6429.61818 [MHz]
  Nuclear repulsion =    9.178038940979068

  Charge       = 0
  Multiplicity = 1
  Electrons    = 10
  Nalpha       = 5
  Nbeta        = 5

  ==> Algorithm <==

  SCF Algorithm Type is DF.
  DIIS enabled.
  MOM disabled.
  Fractional occupation disabled.
  Guess Type is SAD.
  Energy threshold   = 1.00e-06
  Density threshold  = 1.00e-08
  Integral threshold = 1.00e-12

  ==> Primary Basis <==

  Basis Set: CC-PVDZ
    Blend: CC-PVDZ
    Number of shells: 24
    Number of basis functions: 48
    Number of Cartesian functions: 50
    Spherical Harmonics?: true
    Max angular momentum: 2

   => Loading Basis Set <=

    Name: (CC-PVDZ AUX)
    Role: JKFIT
    Keyword: DF_BASIS_SCF
    atoms 1, 4     entry O          line   221 file /home/aj48384/github/psi4/objdir_p4sums/stage/share/psi4/basis/cc-pvdz-jkfit.gbs 
    atoms 2-3, 5-6 entry H          line    51 file /home/aj48384/github/psi4/objdir_p4sums/stage/share/psi4/basis/cc-pvdz-jkfit.gbs 

  ==> Integral Setup <==

  DFHelper Memory: AOs need 0.005 GiB; user supplied 0.366 GiB. 
  SCF_SUBTYPE=INCORE selected. In-core MEM_DF algorithm will be used.
  Using in-core AOs.

  ==> MemDFJK: Density-Fitted J/K Matrices <==

    J tasked:                   Yes
    K tasked:                   Yes
    wK tasked:                   No
    OpenMP threads:              32
    Memory [MiB]:               375
    Algorithm:                 Core
    Schwarz Cutoff:           1E-12
    Mask sparsity (%):       0.0000
    Fitting Condition:        1E-10

   => Auxiliary Basis Set <=

  Basis Set: (CC-PVDZ AUX)
    Blend: CC-PVDZ-JKFIT
    Number of shells: 84
    Number of basis functions: 232
    Number of Cartesian functions: 262
    Spherical Harmonics?: true
    Max angular momentum: 3

  Minimum eigenvalue in the overlap matrix is 3.0512226358E-02.
  Reciprocal condition number of the overlap matrix is 7.7055058080E-03.
    Using symmetric orthogonalization.

  ==> Pre-Iterations <==

  SCF Guess: Superposition of Atomic Densities via on-the-fly atomic UHF (no occupation information).

   -------------------------
    Irrep   Nso     Nmo    
   -------------------------
     A         48      48 
   -------------------------
    Total      48      48
   -------------------------

  ==> Iterations <==

                           Total Energy        Delta E     RMS |[F,P]|

   @DF-RHF iter SAD:   -75.50909571383276   -7.55091e+01   0.00000e+00 
   @DF-RHF iter   1:   -75.95672783073375   -4.47632e-01   8.66901e-03 ADIIS/DIIS
   @DF-RHF iter   2:   -76.00915960114311   -5.24318e-02   5.10467e-03 ADIIS/DIIS
   @DF-RHF iter   3:   -76.02926762298746   -2.01080e-02   4.82284e-04 ADIIS/DIIS
   @DF-RHF iter   4:   -76.02967445120703   -4.06828e-04   1.04685e-04 ADIIS/DIIS
   @DF-RHF iter   5:   -76.02969312534664   -1.86741e-05   1.86035e-05 DIIS
   @DF-RHF iter   6:   -76.02969401394641   -8.88600e-07   3.31959e-06 DIIS
   @DF-RHF iter   7:   -76.02969404853076   -3.45843e-08   4.63733e-07 DIIS
   @DF-RHF iter   8:   -76.02969404919234   -6.61586e-10   9.59631e-08 DIIS
   @DF-RHF iter   9:   -76.02969404922206   -2.97149e-11   2.03158e-08 DIIS
   @DF-RHF iter  10:   -76.02969404922328   -1.22213e-12   3.20889e-09 DIIS
  Energy and wave function converged.


  ==> Post-Iterations <==

    Orbital Energies [Eh]
    ---------------------

    Doubly Occupied:                                                      

       1A    -20.558610     2A     -1.341496     3A     -0.704305  
       4A     -0.571129     5A     -0.497864  

    Virtual:                                                              

       6A      0.160140     7A      0.197716     8A      0.253585  
       9A      0.336367    10A      0.617632    11A      0.688067  
      12A      0.763630    13A      0.790064    14A      0.863656  
      15A      0.918903    16A      1.170720    17A      1.245140  
      18A      1.301171    19A      1.433271    20A      1.471822  
      21A      1.572870    22A      1.680813    23A      1.797724  
      24A      1.896965    25A      1.969483    26A      1.993800  
      27A      2.069310    28A      2.139324    29A      2.397986  
      30A      2.444861    31A      2.481188    32A      2.678923  
      33A      2.791185    34A      3.181167    35A      3.283992  
      36A      3.332331    37A      3.515597    38A      3.869396  
      39A      4.141537    40A      4.468444    41A      4.547121  
      42A      4.700161    43A      4.825109    44A      5.017667  
      45A      5.300057    46A      6.540475    47A      7.052143  
      48A     33.518314  

    Final Occupation by Irrep:
              A 
    DOCC [     5 ]
    NA   [     5 ]
    NB   [     5 ]

  @DF-RHF Final Energy:   -76.02969404922328

   => Energetics <=

    Nuclear Repulsion Energy =              9.1780389409790679
    One-Electron Energy =                -123.0686596324622002
    Two-Electron Energy =                  37.8609266422598552
    Total Energy =                        -76.0296940492232807

Computation Completed


Properties will be evaluated at   0.000000,   0.000000,   0.000000 [a0]

Properties computed using the SCF density matrix


 Multipole Moments:

 ------------------------------------------------------------------------------------
     Multipole            Electronic (a.u.)      Nuclear  (a.u.)        Total (a.u.)
 ------------------------------------------------------------------------------------

 L = 1.  Multiply by 2.5417464519 to convert [e a0] to [Debye]
 Dipole X            :        -27.5065928           28.0137395            0.5071467
 Dipole Y            :         -0.9350177            0.2687651           -0.6662526
 Dipole Z            :          0.0000000            0.0000000            0.0000000
 Magnitude           :                                                    0.8373114

 ------------------------------------------------------------------------------------

*** tstop() called on b6-13 at Mon Oct 28 15:30:48 2024
Module time:
	user time   =      11.27 seconds =       0.19 minutes
	system time =       0.61 seconds =       0.01 minutes
	total time  =          0 seconds =       0.00 minutes
Total time:
	user time   =      11.27 seconds =       0.19 minutes
	system time =       0.61 seconds =       0.01 minutes
	total time  =          0 seconds =       0.00 minutes
 MINTS: Wrapper to libmints.
   by Justin Turney

   Calculation information:
      Number of threads:                32
      Number of atoms:                   6
      Number of AO shells:              24
      Number of SO shells:              24
      Number of primitives:             64
      Number of atomic orbitals:        50
      Number of basis functions:        48

      Number of irreps:                  1
      Integral cutoff                 1.00e-12
      Number of functions per irrep: [  48 ]

 OEINTS: Overlap, kinetic, potential, dipole, and quadrupole integrals
         stored in file 35.

      Computing two-electron integrals...done
      Computed 521329 non-zero two-electron integrals.
        Stored in file 33.

   => Loading Basis Set <=

    Name: CC-PVDZ-RI
    Role: RIFIT
    Keyword: DF_BASIS_MP2
    atoms 1, 4     entry O          line   235 file /home/aj48384/github/psi4/objdir_p4sums/stage/share/psi4/basis/cc-pvdz-ri.gbs 
    atoms 2-3, 5-6 entry H          line    19 file /home/aj48384/github/psi4/objdir_p4sums/stage/share/psi4/basis/cc-pvdz-ri.gbs 


Reading options from the DLPNO_CCSDT_Q block
Calling plugin dlpno_ccsdt_q.so.


Plugins that use gradients: set Da, Db, and Lagrangian for gradient theory on the wavefunction. The old way of passing these will stop working as soon as 1.8.   --------------------------------------------
                    DLPNO-CCSD                 
                   by Andy Jiang               
   --------------------------------------------

  DLPNO convergence set to TIGHT.

  Using CEPA0 algorithm for weak pairs
  Detailed DLPNO thresholds and cutoffs:
    T_CUT_PNO        = 1.0000e-07 
    DIAG_SCALE       = 3.0000e-02 
    T_CUT_TRACE      = 9.9900e-01 
    T_CUT_ENERGY     = 9.9700e-01 
    T_CUT_PAIRS      = 1.0000e-05 
    T_CUT_PRE        = 1.0000e-07 
    T_CUT_DO_PRE     = 3.0000e-02 
    T_CUT_MKN        = 1.0000e-03 
    T_CUT_PNO_MP2    = 1.0000e-09 
    T_CUT_TRACE_MP2  = 9.9990e-01 
    T_CUT_ENERGY_MP2 = 9.9900e-01 
    T_CUT_DO         = 5.0000e-03 
    T_CUT_DO_ij      = 1.0000e-05 
    T_CUT_DO_uv      = 1.0000e-05 
    T_CUT_CLMO       = 1.0000e-03 
    T_CUT_CPAO       = 1.0000e-03 
    S_CUT            = 1.0000e-08 
    F_CUT            = 1.0000e-05 
    INTS_TOL (AO)    = 1.0000e-10 


  ==> Basis Set Information <==

   ----------------------------------------------
      NBF   NFRZC   NACT   NDOCC   NVIR   NAUX   
   ----------------------------------------------
       48      1      4       5      43    168
   ----------------------------------------------

  ==> Boys Localizer <==

    Convergence =   1.000E-12
    Maxiter     =        1000

    Iteration                   Metric       Residual
    @Boys    0   3.0860186587388892E+01              -
    @Boys    1   3.2911808746651438E+01   6.648120E-02
    @Boys    2   3.3204182021924794E+01   8.883537E-03
    @Boys    3   3.3241261433545091E+01   1.116709E-03
    @Boys    4   3.3245483171880899E+01   1.270030E-04
    @Boys    5   3.3245752650415866E+01   8.105719E-06
    @Boys    6   3.3245799817984889E+01   1.418755E-06
    @Boys    7   3.3245805928785522E+01   1.838067E-07
    @Boys    8   3.3245806908217908E+01   2.946033E-08
    @Boys    9   3.3245807023400246E+01   3.464567E-09
    @Boys   10   3.3245807053749466E+01   9.128736E-10
    @Boys   11   3.3245807056609507E+01   8.602712E-11
    @Boys   12   3.3245807057197560E+01   1.768801E-11
    @Boys   13   3.3245807057287251E+01   2.697838E-12
    @Boys   14   3.3245807057299750E+01   3.759405E-13

    Boys Localizer converged.

  Starting Crude Prescreening...
    T_CUT_MKN set to 1.000e-01
    T_CUT_DO  set to 1.000e-02

  ==> Forming Local MO Domains <==

    Auxiliary BFs per Local MO:
      Average =   63 AUX BFs (1 atoms)
      Min     =   56 AUX BFs (1 atoms)
      Max     =   70 AUX BFs (2 atoms)
  
    Projected AOs per Local MO:
      Average =   44 PAOs (5 atoms)
      Min     =   43 PAOs (5 atoms)
      Max     =   48 PAOs (6 atoms)

    Local MOs per Local MO:
      Average =    4 LMOs
      Min     =    4 LMOs
      Max     =    4 LMOs
 
    Screened 0 of 16 LMO pairs (0.00 %)
             0 pairs met overlap criteria
             4 pairs met energy criteria
 
    Screened LMO pair energy =  0.000000000000 

  ==> Merging LMO Domains into LMO Pair Domains <==
  
    Auxiliary BFs per Local MO pair:
      Average =   68 AUX BFs (1 atoms)
      Min     =   56 AUX BFs (1 atoms)
      Max     =   84 AUX BFs (3 atoms)
  
    Local MOs per Local MO pair:
      Average =    4 LMOs
      Min     =    4 LMOs
      Max     =    4 LMOs
  
    Projected AOs per Local MO pair:
      Average =   45 PAOs (5 atoms)
      Min     =   43 PAOs (5 atoms)
      Max     =   48 PAOs (6 atoms)

  ==> Transforming 3-Index Integrals to LMO/PAO basis <==

  ==> Determining Strong and Weak Pairs (Crude Prescreening Step) <==

  ==> Computing SC-LMP2 Pair Energies <==

    Starting semicanonical (non-iterative) LMP2 step...

    PAO-SC-LMP2 Energy:  -0.196921698010

    Eliminated Pairs                = 0
    (Initial) Weak Pairs            = 0
    (Initial) Strong Pairs          = 16
    Surviving Pairs / Total Pairs   = (100.00 %)
    Eliminated Pair dE              = 0.000000000000

  Starting Refined Prescreening...
    T_CUT_MKN reset to 1.000e-03
    T_CUT_DO  reset to 5.000e-03

  ==> Forming Local MO Domains <==

    Auxiliary BFs per Local MO:
      Average =   87 AUX BFs (3 atoms)
      Min     =   84 AUX BFs (3 atoms)
      Max     =   98 AUX BFs (4 atoms)
  
    Projected AOs per Local MO:
      Average =   48 PAOs (6 atoms)
      Min     =   48 PAOs (6 atoms)
      Max     =   48 PAOs (6 atoms)

    Local MOs per Local MO:
      Average =    4 LMOs
      Min     =    4 LMOs
      Max     =    4 LMOs
 

  ==> Merging LMO Domains into LMO Pair Domains <==
  
    Auxiliary BFs per Local MO pair:
      Average =   90 AUX BFs (3 atoms)
      Min     =   84 AUX BFs (3 atoms)
      Max     =   98 AUX BFs (4 atoms)
  
    Local MOs per Local MO pair:
      Average =    4 LMOs
      Min     =    4 LMOs
      Max     =    4 LMOs
  
    Projected AOs per Local MO pair:
      Average =   48 PAOs (6 atoms)
      Min     =   48 PAOs (6 atoms)
      Max     =   48 PAOs (6 atoms)

  ==> Transforming 3-Index Integrals to LMO/PAO basis <==

  ==> Determining Strong and Weak Pairs (Refined Prescreening Step) <==


  ==> Computing SC-LMP2 Pair Energies <==

    Starting semicanonical (non-iterative) LMP2 step...


  ==> Forming Pair Natural Orbitals (for LMP2) <==
    PAO-SC-LMP2 Energy:  -0.197005532771

  
    Natural Orbitals per Local MO pair:
      Avg:  24 NOs 
      Min:  23 NOs 
      Max:  30 NOs 
      Avg Occ Number Tol: 2.340e-09 
      Min Occ Number Tol: 3.177e-11 
      Max Occ Number Tol: 4.854e-09 
      Avg Trace Sum: 1.000000 
      Min Trace Sum: 1.000000 
      Max Trace Sum: 1.000000 
  
    PNO truncation energy = -0.000000090172
    (Additional) Eliminated Pairs   = 0
    (Final) Weak Pairs              = 0
    (Final) Strong Pairs            = 16
    Strong Pairs / Total Pairs      = (100.00 %)
    (Cumulative) Eliminated Pair dE = 0.000000000000
    (Initial) Weak Pair dE          = 0.000000000000


    Auxiliary BFs per Local MO:
      Average =   87 AUX BFs (3 atoms)
      Min     =   84 AUX BFs (3 atoms)
      Max     =   98 AUX BFs (4 atoms)
  
    Projected AOs per Local MO:
      Average =   48 PAOs (6 atoms)
      Min     =   48 PAOs (6 atoms)
      Max     =   48 PAOs (6 atoms)

    Local MOs per Local MO:
      Average =    4 LMOs
      Min     =    4 LMOs
      Max     =    4 LMOs
 

  ==> Merging LMO Domains into LMO Pair Domains <==
  
    Auxiliary BFs per Local MO pair:
      Average =   90 AUX BFs (3 atoms)
      Min     =   84 AUX BFs (3 atoms)
      Max     =   98 AUX BFs (4 atoms)
  
    Local MOs per Local MO pair:
      Average =    4 LMOs
      Min     =    4 LMOs
      Max     =    4 LMOs
  
    Projected AOs per Local MO pair:
      Average =   48 PAOs (6 atoms)
      Min     =   48 PAOs (6 atoms)
      Max     =   48 PAOs (6 atoms)
  ==> PNO-LMP2 Memory Estimate <== 

    PNO/PNO overlaps       : 0.000 [GiB]
    Total Memory Given     : 0.488 [GiB]


  ==> Iterative Local MP2 with Pair Natural Orbitals (PNOs) <==

    E_CONVERGENCE = 1.00e-08
    R_CONVERGENCE = 1.00e-08

                         Corr. Energy    Delta E     Max R     Time (s)
  @PNO-LMP2 iter   0:  -0.201339937865 -2.013e-01  1.076e-03        0
  @PNO-LMP2 iter   1:  -0.203434282545 -2.094e-03  2.897e-04        0
  @PNO-LMP2 iter   2:  -0.203578720824 -1.444e-04  5.716e-05        0
  @PNO-LMP2 iter   3:  -0.203597750450 -1.903e-05  1.125e-05        0
  @PNO-LMP2 iter   4:  -0.203598965025 -1.215e-06  1.335e-06        0
  @PNO-LMP2 iter   5:  -0.203599196565 -2.315e-07  2.347e-07        0
  @PNO-LMP2 iter   6:  -0.203599196806 -2.418e-10  4.099e-08        0
  @PNO-LMP2 iter   7:  -0.203599179561  1.725e-08  8.561e-09        0
  @PNO-LMP2 iter   8:  -0.203599177802  1.759e-09  1.418e-09        0
  
  Total DLPNO-MP2 Correlation Energy:  -0.203599267974 
    MP2 Correlation Energy:            -0.203599177802 
    Eliminated Pair MP2 Correction:     0.000000000000 
    Dipole Correction:                  0.000000000000 
    PNO Truncation Correction:         -0.000000090172 


  ==> Forming Pair Natural Orbitals (for LCCSD) <==
  
    Natural Orbitals per Local MO pair:
      Avg:  20 NOs 
      Min:  20 NOs 
      Max:  25 NOs 
      Avg Occ Number Tol: 9.702e-08 
      Min Occ Number Tol: 3.435e-09 
      Max Occ Number Tol: 1.476e-07 
      Avg Trace Sum: 0.999988 
      Min Trace Sum: 0.999967 
      Max Trace Sum: 1.000000 
  
    LMP2 Weak pair energy = 0.000000000000
    PNO truncation energy = -0.000004416725

    Coefficient sparsity in AO -> LMO transform:  40.00 % 
    Coefficient sparsity in AO -> PAO transform:  40.00 % 
    Coefficient sparsity in combined transforms:  40.00 % 

    Storing transformed LMO/LMO, LMO/PAO, and PAO/PAO integrals in sparse format.
    Required memory: 0.002 GiB (41.67 % reduction from dense format) 

  ==> Transforming 3-Index Integrals to LMO/LMO basis <==

  ==> Transforming 3-Index Integrals to PAO/PAO basis <==
    PAO/PAO Integral Memory After Screening: 0.001 [GiB]

  ==> DLPNO-CCSD Memory Requirements <== 

    (q | i j) integrals        : 0.000 [GiB]
    (q | i a) integrals        : 0.000 [GiB]
    (q | a b) integrals        : 0.001 [GiB]
    (m i | n j)                : 0.000 [GiB]
    (i j | k c_{ij})           : 0.000 [GiB]
    (i a_{ij} | j b_{ij})      : 0.000 [GiB]
    (i k | a_{ij} b_{kj})      : 0.000 [GiB]
    (i a_{ij} | b_{ij} c_{ij}) : 0.001 [GiB]
    (Q_{ij}|m_{ij} a_{ij})     : 0.001 [GiB]
    (Q_{ij}|a_{ij} b_{ij})     : 0.003 [GiB]
    PNO/PNO overlaps           : 0.000 [GiB]

    Total Memory Given         : 0.488 [GiB]
    Total Memory Required      : 0.007 [GiB]

    Using high memory PNO overlap algorithm... 

    Storing (Q_{ij}|m_{ij} a_{ij}) integrals in RAM... 

    Storing (Q_{ij}|a_{ij} b_{ij}) integrals in RAM... 

    Computing CC integrals...

    Integral Computation Complete!!! Time Elapsed:    0 seconds


  ==> Local CCSD (T1-transformed Hamiltonian) <==

    E_CONVERGENCE = 1.00e-06
    R_CONVERGENCE = 1.00e-06

                      Corr. Energy    Delta E     Max R1     Max R2     Time (s)
  @LCCSD iter   0:  -0.208618370468 -2.086e-01  4.273e-03  2.060e-03        0
  @LCCSD iter   1:  -0.212161748890 -3.543e-03  8.885e-04  7.315e-04        0
  @LCCSD iter   2:  -0.212718892056 -5.571e-04  3.204e-04  2.144e-04        0
  @LCCSD iter   3:  -0.212945517543 -2.266e-04  1.503e-04  7.051e-05        0
  @LCCSD iter   4:  -0.212984651618 -3.913e-05  3.819e-05  1.653e-05        0
  @LCCSD iter   5:  -0.212985934966 -1.283e-06  2.437e-05  5.356e-06        0
  @LCCSD iter   6:  -0.212986372593 -4.376e-07  9.598e-06  2.721e-06        0
  @LCCSD iter   7:  -0.212987350970 -9.784e-07  5.582e-06  9.290e-07        0
  @LCCSD iter   8:  -0.212987704460 -3.535e-07  2.133e-06  3.979e-07        0
  @LCCSD iter   9:  -0.212987948064 -2.436e-07  9.151e-07  1.468e-07        0

  T1 Diagnostic: 0.00725082 
  
  Total DLPNO-CCSD Correlation Energy:  -0.212992364789 
    CCSD Correlation Energy:            -0.212987948064 
    Weak Pair Contribution:              0.000000000000 
    Eliminated Pair MP2 Correction:      0.000000000000 
    Dipole Pair Correction:              0.000000000000 
    PNO Truncation Correction:          -0.000004416725 


  @Total DLPNO-CCSD Energy: -76.242686414012 
   --------------------------------------------
                    DLPNO-CCSD(T)              
                    by Andy Jiang              
   --------------------------------------------

  DLPNO convergence set to TIGHT.

  Detailed DLPNO thresholds and cutoffs:
    ALGORITHM    = ITERATIVE (T)   
    STORAGE      = IN CORE   
    T_CUT_TNO (T0)             = 1.000e-09 
    T_CUT_DO_TRIPLES (T0)      = 1.000e-02 
    T_CUT_MKN_TRIPLES (T0)     = 1.000e-02 
    T_CUT_TRIPLES_WEAK (T0)    = 1.000e-07 
    T_CUT_TNO_PRE (T0)         = 1.000e-07 
    T_CUT_DO_TRIPLES_PRE (T0)  = 2.000e-02 
    T_CUT_MKN_TRIPLES_PRE (T0) = 1.000e-01 
    TRIPLES_MAX_WEAK_PAIRS     =      2   
    T_CUT_TNO_STRONG (T)       = 1.000e-08 
    T_CUT_TNO_WEAK (T)         = 1.000e-07 
    F_CUT_T (T)                = 1.000e-03 
    T_CUT_ITER (T)             = 1.000e-03 



   Starting Triplet Prescreening...
     T_CUT_TNO set to 1.000e-07 
     T_CUT_DO  set to 2.000e-02 
     T_CUT_MKN set to 1.000e-01 

  
    Number of (Unique) Local MO triplets: 16
    Max Number of Possible (Unique) LMO Triplets: 16 (Ratio: 1.0000)
    Natural Orbitals per Local MO triplet:
      Avg:  20 NOs 
      Min:  20 NOs 
      Max:  22 NOs 
  
    (Relavent) Semicanonical LCCSD(T0) Computation Complete!!! Time Elapsed:    0 seconds


   Continuing computation with surviving triplets...
     Eliminated all triples with energy less than 1.000e-07 Eh... 

    * Energy Contribution From Screened Triplets: 0.000000000000 

     T_CUT_TNO (re)set to 1.000e-09 
     T_CUT_DO  (re)set to 1.000e-02 
     T_CUT_MKN (re)set to 1.000e-02 

  
    Number of (Unique) Local MO triplets: 16
    Max Number of Possible (Unique) LMO Triplets: 16 (Ratio: 1.0000)
    Natural Orbitals per Local MO triplet:
      Avg:  24 NOs 
      Min:  24 NOs 
      Max:  27 NOs 
  
    (Relavent) Semicanonical LCCSD(T0) Computation Complete!!! Time Elapsed:    0 seconds

    DLPNO-CCSD(T0) Correlation Energy:  -0.216108108972 
    * DLPNO-CCSD Contribution:          -0.212987948064 
    * DLPNO-(T0) Contribution:          -0.003120160908 
    * Screened Triplets Contribution:    0.000000000000 



  ==> Computing Full Iterative (T) <==

  ==> Sorting Triplets <== 

    Number of Strong Triplets:     14, Total Triplets:     16, Ratio: 0.8750

     T_CUT_TNO (re)set to 1.000e-08 for strong triples 
     T_CUT_TNO (re)set to 1.000e-07 for weak triples   

  
    Number of (Unique) Local MO triplets: 16
    Max Number of Possible (Unique) LMO Triplets: 16 (Ratio: 1.0000)
    Natural Orbitals per Local MO triplet:
      Avg:  22 NOs 
      Min:  20 NOs 
      Max:  24 NOs 
  

  ==> DLPNO-(T) Memory Requirements <== 

    (q | i j) integrals    : 0.000 [GiB]
    (q | i a) integrals    : 0.000 [GiB]
    (q | a b) integrals    : 0.001 [GiB]
    W_{ijk}^{abc}          : 0.001 [GiB]
    V_{ijk}^{abc}          : 0.001 [GiB]
    T_{ijk}^{abc}          : 0.001 [GiB]
    Total Memory Given     : 0.488 [GiB]
    Total Memory Required  : 0.005 [GiB]

    Storing all X_{ijk}^{abc} quantities in RAM...

    (Relavent) Semicanonical LCCSD(T0) Computation Complete!!! Time Elapsed:    0 seconds


  ==> Local CCSD(T) <==

    E_CONVERGENCE = 1.00e-06
    R_CONVERGENCE = 1.00e-06

                         Corr. Energy    Delta E     Max R     Time (s)
  @LCCSD(T) iter   1:  -0.003223937296 -3.224e-03  2.306e-05        0
  @LCCSD(T) iter   2:  -0.003243863574 -1.993e-05  3.744e-06        0
  @LCCSD(T) iter   3:  -0.003244483183 -6.196e-07  8.251e-07        0

    DLPNO-CCSD(T0) energy at looser tolerance:  -0.003119362236
    DLPNO-CCSD(T)  energy at looser tolerance:  -0.003244483183
    * Net Iterative (T) contribution:           -0.000125120948

  
  Total DLPNO-CCSD(T) Correlation Energy:  -0.216237646645 
    DLPNO-CCSD Contribution:               -0.212992364789 
    DLPNO-(T) Contribution:                -0.003245281856 
    Screened Triplets Contribution:         0.000000000000 
    Andy Jiang... FOR THREEEEEEEEEEE!!!


  @Total DLPNO-CCSD(T) Energy: -76.245931695868 
   --------------------------------------------
                    DLPNO-CCSDT                
                   by Andy Jiang               
   --------------------------------------------

  DLPNO convergence set to TIGHT.

  Detailed DLPNO thresholds and cutoffs:
    T_CUT_TNO_STRONG           = 1.000e-08 
    T_CUT_TNO_WEAK             = 1.000e-07 
    T_CUT_DO_TRIPLES           = 1.000e-02 
    T_CUT_MKN_TRIPLES          = 1.000e-02 
    F_CUT_T                    = 1.000e-03 

 ==> DLPNO-CCSDT Memory Estimate <== 

    (i j | l_{ijk} a_{ijk})        : 0.001 [GiB]
    (i a_{ijk} | l_{ijk} b_{ijk})  : 0.012 [GiB]
    (i a_{ijk} | b_{ijk} c_{ijk})  : 0.065 [GiB]
    (Q_{ijk} | l_{ijk} [i,j,k])    : 0.002 [GiB]
    (Q_{ijk} | l_{ijk} a_{ijk})    : 0.037 [GiB]
    (Q_{ijk} | a_{ijk} b_{ijk})    : 0.069 [GiB]
    Total Memory Required          : 0.184 [GiB]


  ==> Local CCSDT <==

    E_CONVERGENCE = 1.00e-06
    R_CONVERGENCE = 1.00e-06

                       Corr. Energy    Delta E     Max R1     Max R2     Max R3     Time (s)
  @LCCSDT iter   1:  -0.216047663268 -2.160e-01  4.446e-04  2.816e-04  5.306e-05        0
  @LCCSDT iter   2:  -0.216116292624 -6.863e-05  1.591e-04  5.481e-05  2.213e-05        0
  @LCCSDT iter   3:  -0.216366211385 -2.499e-04  7.655e-05  3.701e-05  7.180e-06        1
  @LCCSDT iter   4:  -0.216401095283 -3.488e-05  2.804e-05  1.061e-05  2.721e-06        0
  @LCCSDT iter   5:  -0.216407482909 -6.388e-06  1.159e-05  5.297e-06  1.126e-06        1
  @LCCSDT iter   6:  -0.216407349463  1.334e-07  3.766e-06  1.902e-06  4.200e-07        0
  @LCCSDT iter   7:  -0.216408509879 -1.160e-06  2.072e-06  9.815e-07  1.367e-07        1
  @LCCSDT iter   8:  -0.216408022026  4.879e-07  1.084e-06  3.320e-07  6.213e-08        0
  @LCCSDT iter   9:  -0.216408197525 -1.755e-07  4.508e-07  1.743e-07  2.453e-08        1

  T1 Diagnostic: 0.00680984 
  
  Total DLPNO-CCSDT Correlation Energy:  -0.216413412922 
    LCCSDT Correlation Energy:           -0.216408197525 
    Weak Pair Contribution:               0.000000000000 
    Eliminated Pair MP2 Correction:       0.000000000000 
    Dipole Pair Correction:               0.000000000000 
    PNO Truncation Correction:           -0.000004416725 
    Triples Rank Correction (T0):        -0.000000798673 
    Houston is (still) a delinquent


  @Total DLPNO-CCSDT Energy: -76.246107462146 

    Psi4 stopped on: Monday, 28 October 2024 03:30PM
    Psi4 wall time for execution: 0:00:04.92

*** Psi4 exiting successfully. Buy a developer a beer!
