
    -----------------------------------------------------------------------
          Psi4: An Open-Source Ab Initio Electronic Structure Package
                               Psi4 1.10a1.dev47 

                         Git: Rev {dlpno_ccsd_t_1_9} 6cef7c8 dirty


    D. G. A. Smith, L. A. Burns, A. C. Simmonett, R. M. Parrish,
    M. C. Schieber, R. Galvelis, P. Kraus, H. Kruse, R. Di Remigio,
    A. Alenaizan, A. M. James, S. Lehtola, J. P. Misiewicz, M. Scheurer,
    R. A. Shaw, J. B. Schriber, Y. Xie, Z. L. Glick, D. A. Sirianni,
    J. S. O'Brien, J. M. Waldrop, A. Kumar, E. G. Hohenstein,
    B. P. Pritchard, B. R. Brooks, H. F. Schaefer III, A. Yu. Sokolov,
    K. Patkowski, A. E. DePrince III, U. Bozkaya, R. A. King,
    F. A. Evangelista, J. M. Turney, T. D. Crawford, C. D. Sherrill,
    J. Chem. Phys. 152(18) 184108 (2020). https://doi.org/10.1063/5.0006002

                            Additional Code Authors
    E. T. Seidl, C. L. Janssen, E. F. Valeev, M. L. Leininger,
    J. F. Gonthier, R. M. Richard, H. R. McAlexander, M. Saitow, X. Wang,
    P. Verma, M. H. Lechner, A. Jiang, S. Behnle, A. G. Heide,
    M. F. Herbst, and D. L. Poole

             Previous Authors, Complete List of Code Contributors,
                       and Citations for Specific Modules
    https://github.com/psi4/psi4/blob/master/codemeta.json
    https://github.com/psi4/psi4/graphs/contributors
    http://psicode.org/psi4manual/master/introduction.html#citing-psifour

    -----------------------------------------------------------------------


    Psi4 started on: Monday, 26 August 2024 03:59PM

    Process ID: 1371694
    Host:       b6-9
    PSIDATADIR: /home/aj48384/github/psi4/objdir_p4sums/stage/share/psi4
    Memory:     500.0 MiB
    Threads:    32
    
  ==> Input File <==

--------------------------------------------------------------------------

# PYTHONPATH must include directory above plugin directory.
#     Define either externally or here, then import plugin.
sys.path.insert(0, './..')
import dlpno_ccsdt_q

molecule mol {
0 1
O  -1.551007  -0.114520   0.000000
H  -1.934259   0.762503   0.000000
H  -0.599677   0.040712   0.000000
--
0 1
O   1.350625   0.111469   0.000000
H   1.680398  -0.373741  -0.758561
H   1.680398  -0.373741   0.758561
units angstrom
symmetry c1
}

set {
  scf_type df
  mp2_type df
  cc_type conv
  basis cc-pvdz
  df_basis_mp2 cc-pvdz-ri
  pno_convergence tight
  freeze_core true
  e_convergence 1.0e-6
  r_convergence 1.0e-6
}

set dlpno_ccsdt_q {
  print 1
}

energy('dlpno_ccsdt_q', bsse_type='cp')

dlpno_ccsdt_q.exampleFN()
--------------------------------------------------------------------------

Scratch directory: /tmp/

  //>>>>>>>>>>>>>>>>>>>>>>>>>>>>>>>>>>>>>//
  // ManyBody Setup: N-Body Levels [1, 2]//
  //<<<<<<<<<<<<<<<<<<<<<<<<<<<<<<<<<<<<<//

        Number of 1-body computations:     2
        Number of 2-body computations:     1

    -----------------------------------------------------------------------
          Psi4: An Open-Source Ab Initio Electronic Structure Package
                               Psi4 1.10a1.dev47 

                         Git: Rev {dlpno_ccsd_t_1_9} 6cef7c8 dirty


    D. G. A. Smith, L. A. Burns, A. C. Simmonett, R. M. Parrish,
    M. C. Schieber, R. Galvelis, P. Kraus, H. Kruse, R. Di Remigio,
    A. Alenaizan, A. M. James, S. Lehtola, J. P. Misiewicz, M. Scheurer,
    R. A. Shaw, J. B. Schriber, Y. Xie, Z. L. Glick, D. A. Sirianni,
    J. S. O'Brien, J. M. Waldrop, A. Kumar, E. G. Hohenstein,
    B. P. Pritchard, B. R. Brooks, H. F. Schaefer III, A. Yu. Sokolov,
    K. Patkowski, A. E. DePrince III, U. Bozkaya, R. A. King,
    F. A. Evangelista, J. M. Turney, T. D. Crawford, C. D. Sherrill,
    J. Chem. Phys. 152(18) 184108 (2020). https://doi.org/10.1063/5.0006002

                            Additional Code Authors
    E. T. Seidl, C. L. Janssen, E. F. Valeev, M. L. Leininger,
    J. F. Gonthier, R. M. Richard, H. R. McAlexander, M. Saitow, X. Wang,
    P. Verma, M. H. Lechner, A. Jiang, S. Behnle, A. G. Heide,
    M. F. Herbst, and D. L. Poole

             Previous Authors, Complete List of Code Contributors,
                       and Citations for Specific Modules
    https://github.com/psi4/psi4/blob/master/codemeta.json
    https://github.com/psi4/psi4/graphs/contributors
    http://psicode.org/psi4manual/master/introduction.html#citing-psifour

    -----------------------------------------------------------------------


    Psi4 started on: Monday, 26 August 2024 03:59PM

    Process ID: 1371694
    Host:       b6-9
    PSIDATADIR: /home/aj48384/github/psi4/objdir_p4sums/stage/share/psi4
    Memory:     500.0 MiB
    Threads:    32
    
  ==> Input QCSchema <==

--------------------------------------------------------------------------
{'driver': 'energy',
 'extras': {'psiapi': True, 'wfn_qcvars_only': True},
 'id': None,
 'keywords': {'CC_TYPE': 'CONV',
              'DF_BASIS_MP2': 'CC-PVDZ-RI',
              'E_CONVERGENCE': 1e-06,
              'FREEZE_CORE': 'TRUE',
              'MP2_TYPE': 'DF',
              'PNO_CONVERGENCE': 'TIGHT',
              'R_CONVERGENCE': 1e-06,
              'SCF_TYPE': 'DF',
              'function_kwargs': {}},
 'model': {'basis': 'cc-pvdz', 'method': 'dlpno_ccsdt_q'},
 'molecule': {'atom_labels': ['', '', '', '', '', ''],
              'atomic_numbers': [8, 1, 1, 8, 1, 1],
              'extras': {},
              'fix_com': True,
              'fix_orientation': True,
              'fix_symmetry': 'c1',
              'fragment_charges': [0.0, 0.0],
              'fragment_multiplicities': [1, 1],
              'fragments': [[0, 1, 2], [3, 4, 5]],
              'geometry': [-2.8065519757000907, -0.21679800591221124, 1.1865220829071016e-18, -3.5307932927340544,
                           1.4405352698151894, 1.1865220829071016e-18, -1.0087988207682952, 0.07654795999485833,
                           1.1865220829071016e-18, 2.676737821164358, 0.21025931145387788, 1.1865220829071016e-18,
                           3.2999184747349624, -0.7066547018795148, -1.4334725394534156, 3.2999184747349624,
                           -0.7066547018795148, 1.4334725394534156],
              'mass_numbers': [16, 1, 1, 16, 1, 1],
              'masses': [15.99491461957, 1.00782503223, 1.00782503223, 15.99491461957, 1.00782503223, 1.00782503223],
              'molecular_charge': 0.0,
              'molecular_multiplicity': 1,
              'name': 'mol',
              'provenance': {'creator': 'QCElemental',
                             'routine': 'qcelemental.molparse.from_string',
                             'version': '0.28.0'},
              'real': [False, False, False, True, True, True],
              'schema_name': 'qcschema_molecule',
              'schema_version': 2,
              'symbols': ['O', 'H', 'H', 'O', 'H', 'H'],
              'validated': True},
 'protocols': {'stdout': True},
 'provenance': {'creator': 'QCElemental', 'routine': 'qcelemental.models.results', 'version': '0.28.0'},
 'schema_name': 'qcschema_input',
 'schema_version': 1}
--------------------------------------------------------------------------

Scratch directory: /tmp/
   => Libint2 <=

    Primary   basis highest AM E, G, H:  6, 6, 3
    Auxiliary basis highest AM E, G, H:  7, 7, 4
    Onebody   basis highest AM E, G, H:  -, -, -
    Solid Harmonics ordering:            Gaussian

*** tstart() called on b6-9
*** at Mon Aug 26 15:59:49 2024

   => Loading Basis Set <=

    Name: CC-PVDZ
    Role: ORBITAL
    Keyword: BASIS
    atoms 1, 4     entry O          line   198 file /home/aj48384/github/psi4/objdir_p4sums/stage/share/psi4/basis/cc-pvdz.gbs 
    atoms 2-3, 5-6 entry H          line    22 file /home/aj48384/github/psi4/objdir_p4sums/stage/share/psi4/basis/cc-pvdz.gbs 


         ---------------------------------------------------------
                                   SCF
               by Justin Turney, Rob Parrish, Andy Simmonett
                          and Daniel G. A. Smith
                              RHF Reference
                       32 Threads,    500 MiB Core
         ---------------------------------------------------------

  ==> Geometry <==

    Molecular point group: c1
    Full point group: Cs

    Geometry (in Bohr), charge = 0, multiplicity = 1:

       Center              X                  Y                   Z               Mass       
    ------------   -----------------  -----------------  -----------------  -----------------
      Gh(O)          -2.806551975700    -0.216798005912     0.000000000000    15.994914619570
      Gh(H)          -3.530793292734     1.440535269815     0.000000000000     1.007825032230
      Gh(H)          -1.008798820768     0.076547959995     0.000000000000     1.007825032230
         O            2.676737821164     0.210259311454     0.000000000000    15.994914619570
         H            3.299918474735    -0.706654701880    -1.433472539453     1.007825032230
         H            3.299918474735    -0.706654701880     1.433472539453     1.007825032230

  Running in c1 symmetry.

  Rotational constants: A =      7.15151  B =      0.21457  C =      0.21447 [cm^-1]
  Rotational constants: A = 214396.91837  B =   6432.69061  C =   6429.61818 [MHz]
  Nuclear repulsion =    9.178038940979068

  Charge       = 0
  Multiplicity = 1
  Electrons    = 10
  Nalpha       = 5
  Nbeta        = 5

  ==> Algorithm <==

  SCF Algorithm Type is DF.
  DIIS enabled.
  MOM disabled.
  Fractional occupation disabled.
  Guess Type is SAD.
  Energy threshold   = 1.00e-06
  Density threshold  = 1.00e-08
  Integral threshold = 1.00e-12

  ==> Primary Basis <==

  Basis Set: CC-PVDZ
    Blend: CC-PVDZ
    Number of shells: 24
    Number of basis functions: 48
    Number of Cartesian functions: 50
    Spherical Harmonics?: true
    Max angular momentum: 2

   => Loading Basis Set <=

    Name: (CC-PVDZ AUX)
    Role: JKFIT
    Keyword: DF_BASIS_SCF
    atoms 1, 4     entry O          line   221 file /home/aj48384/github/psi4/objdir_p4sums/stage/share/psi4/basis/cc-pvdz-jkfit.gbs 
    atoms 2-3, 5-6 entry H          line    51 file /home/aj48384/github/psi4/objdir_p4sums/stage/share/psi4/basis/cc-pvdz-jkfit.gbs 

  ==> Integral Setup <==

  DFHelper Memory: AOs need 0.005 GiB; user supplied 0.366 GiB. 
  SCF_SUBTYPE=INCORE selected. In-core MEM_DF algorithm will be used.
  Using in-core AOs.

  ==> MemDFJK: Density-Fitted J/K Matrices <==

    J tasked:                   Yes
    K tasked:                   Yes
    wK tasked:                   No
    OpenMP threads:              32
    Memory [MiB]:               375
    Algorithm:                 Core
    Schwarz Cutoff:           1E-12
    Mask sparsity (%):       0.0000
    Fitting Condition:        1E-10

   => Auxiliary Basis Set <=

  Basis Set: (CC-PVDZ AUX)
    Blend: CC-PVDZ-JKFIT
    Number of shells: 84
    Number of basis functions: 232
    Number of Cartesian functions: 262
    Spherical Harmonics?: true
    Max angular momentum: 3

  Minimum eigenvalue in the overlap matrix is 3.0512226358E-02.
  Reciprocal condition number of the overlap matrix is 7.7055058080E-03.
    Using symmetric orthogonalization.

  ==> Pre-Iterations <==

  SCF Guess: Superposition of Atomic Densities via on-the-fly atomic UHF (no occupation information).

   -------------------------
    Irrep   Nso     Nmo    
   -------------------------
     A         48      48 
   -------------------------
    Total      48      48
   -------------------------

  ==> Iterations <==

                           Total Energy        Delta E     RMS |[F,P]|

   @DF-RHF iter SAD:   -75.50909571383647   -7.55091e+01   0.00000e+00 
   @DF-RHF iter   1:   -75.95672783073812   -4.47632e-01   8.66901e-03 DIIS/ADIIS
   @DF-RHF iter   2:   -76.00915960114745   -5.24318e-02   5.10467e-03 DIIS/ADIIS
   @DF-RHF iter   3:   -76.02926762299177   -2.01080e-02   4.82284e-04 DIIS/ADIIS
   @DF-RHF iter   4:   -76.02967445121136   -4.06828e-04   1.04685e-04 DIIS/ADIIS
   @DF-RHF iter   5:   -76.02969312535086   -1.86741e-05   1.86035e-05 DIIS
   @DF-RHF iter   6:   -76.02969401395059   -8.88600e-07   3.31959e-06 DIIS
   @DF-RHF iter   7:   -76.02969404853505   -3.45845e-08   4.63733e-07 DIIS
   @DF-RHF iter   8:   -76.02969404919666   -6.61615e-10   9.59631e-08 DIIS
   @DF-RHF iter   9:   -76.02969404922641   -2.97433e-11   2.03158e-08 DIIS
   @DF-RHF iter  10:   -76.02969404922766   -1.25056e-12   3.20889e-09 DIIS
  Energy and wave function converged.


  ==> Post-Iterations <==

    Orbital Energies [Eh]
    ---------------------

    Doubly Occupied:                                                      

       1A    -20.558610     2A     -1.341496     3A     -0.704305  
       4A     -0.571129     5A     -0.497864  

    Virtual:                                                              

       6A      0.160140     7A      0.197716     8A      0.253585  
       9A      0.336367    10A      0.617632    11A      0.688067  
      12A      0.763630    13A      0.790064    14A      0.863656  
      15A      0.918903    16A      1.170720    17A      1.245140  
      18A      1.301171    19A      1.433271    20A      1.471822  
      21A      1.572870    22A      1.680813    23A      1.797724  
      24A      1.896965    25A      1.969483    26A      1.993800  
      27A      2.069310    28A      2.139324    29A      2.397986  
      30A      2.444861    31A      2.481188    32A      2.678923  
      33A      2.791185    34A      3.181167    35A      3.283992  
      36A      3.332331    37A      3.515597    38A      3.869396  
      39A      4.141537    40A      4.468444    41A      4.547121  
      42A      4.700161    43A      4.825109    44A      5.017667  
      45A      5.300057    46A      6.540475    47A      7.052143  
      48A     33.518314  

    Final Occupation by Irrep:
              A 
    DOCC [     5 ]
    NA   [     5 ]
    NB   [     5 ]

  @DF-RHF Final Energy:   -76.02969404922766

   => Energetics <=

    Nuclear Repulsion Energy =              9.1780389409790679
    One-Electron Energy =                -123.0686596324647724
    Two-Electron Energy =                  37.8609266422580504
    Total Energy =                        -76.0296940492276576

Computation Completed


Properties will be evaluated at   0.000000,   0.000000,   0.000000 [a0]

Properties computed using the SCF density matrix


 Multipole Moments:

 ------------------------------------------------------------------------------------
     Multipole            Electronic (a.u.)      Nuclear  (a.u.)        Total (a.u.)
 ------------------------------------------------------------------------------------

 L = 1.  Multiply by 2.5417464519 to convert [e a0] to [Debye]
 Dipole X            :        -27.5065928           28.0137395            0.5071467
 Dipole Y            :         -0.9350177            0.2687651           -0.6662526
 Dipole Z            :          0.0000000            0.0000000            0.0000000
 Magnitude           :                                                    0.8373114

 ------------------------------------------------------------------------------------

*** tstop() called on b6-9 at Mon Aug 26 15:59:49 2024
Module time:
	user time   =      12.00 seconds =       0.20 minutes
	system time =       0.65 seconds =       0.01 minutes
	total time  =          0 seconds =       0.00 minutes
Total time:
	user time   =      12.00 seconds =       0.20 minutes
	system time =       0.65 seconds =       0.01 minutes
	total time  =          0 seconds =       0.00 minutes
 MINTS: Wrapper to libmints.
   by Justin Turney

   Calculation information:
      Number of threads:                32
      Number of atoms:                   6
      Number of AO shells:              24
      Number of SO shells:              24
      Number of primitives:             64
      Number of atomic orbitals:        50
      Number of basis functions:        48

      Number of irreps:                  1
      Integral cutoff                 1.00e-12
      Number of functions per irrep: [  48 ]

 OEINTS: Overlap, kinetic, potential, dipole, and quadrupole integrals
         stored in file 35.

      Computing two-electron integrals...done
      Computed 521329 non-zero two-electron integrals.
        Stored in file 33.

   => Loading Basis Set <=

    Name: CC-PVDZ-RI
    Role: RIFIT
    Keyword: DF_BASIS_MP2
    atoms 1, 4     entry O          line   235 file /home/aj48384/github/psi4/objdir_p4sums/stage/share/psi4/basis/cc-pvdz-ri.gbs 
    atoms 2-3, 5-6 entry H          line    19 file /home/aj48384/github/psi4/objdir_p4sums/stage/share/psi4/basis/cc-pvdz-ri.gbs 


Reading options from the DLPNO_CCSDT_Q block
Calling plugin dlpno_ccsdt_q.so.


Plugins that use gradients: set Da, Db, and Lagrangian for gradient theory on the wavefunction. The old way of passing these will stop working as soon as 1.8.   --------------------------------------------
                    DLPNO-CCSD                 
                   by Andy Jiang               
   --------------------------------------------

  DLPNO convergence set to TIGHT.

  Detailed DLPNO thresholds and cutoffs:
    T_CUT_PNO        = 1.0000e-07 
    DIAG_SCALE       = 1.0000e-03 
    T_CUT_TRACE      = 9.9900e-01 
    T_CUT_ENERGY     = 9.9700e-01 
    T_CUT_PAIRS      = 1.0000e-05 
    T_CUT_PRE        = 1.0000e-07 
    T_CUT_DO_PRE     = 3.0000e-02 
    T_CUT_MKN        = 1.0000e-03 
    T_CUT_PNO_MP2    = 1.0000e-09 
    T_CUT_TRACE_MP2  = 9.9990e-01 
    T_CUT_ENERGY_MP2 = 9.9900e-01 
    T_CUT_DO         = 5.0000e-03 
    T_CUT_DO_ij      = 1.0000e-05 
    T_CUT_DO_uv      = 1.0000e-05 
    T_CUT_CLMO       = 1.0000e-03 
    T_CUT_CPAO       = 1.0000e-03 
    S_CUT            = 1.0000e-08 
    F_CUT            = 1.0000e-05 
    INTS_TOL (AO)    = 1.0000e-10 


  ==> Basis Set Information <==

   ----------------------------------------------
      NBF   NFRZC   NACT   NDOCC   NVIR   NAUX   
   ----------------------------------------------
       48      1      4       5      43    168
   ----------------------------------------------

  ==> Boys Localizer <==

    Convergence =   1.000E-12
    Maxiter     =        1000

    Iteration                   Metric       Residual
    @Boys    0   3.0860186587388874E+01              -
    @Boys    1   3.2911808746651168E+01   6.648120E-02
    @Boys    2   3.3204182021924552E+01   8.883537E-03
    @Boys    3   3.3241261433544871E+01   1.116709E-03
    @Boys    4   3.3245483171880672E+01   1.270030E-04
    @Boys    5   3.3245752650415653E+01   8.105719E-06
    @Boys    6   3.3245799817984690E+01   1.418755E-06
    @Boys    7   3.3245805928785323E+01   1.838067E-07
    @Boys    8   3.3245806908217709E+01   2.946033E-08
    @Boys    9   3.3245807023400047E+01   3.464567E-09
    @Boys   10   3.3245807053749260E+01   9.128734E-10
    @Boys   11   3.3245807056609308E+01   8.602734E-11
    @Boys   12   3.3245807057197361E+01   1.768801E-11
    @Boys   13   3.3245807057287045E+01   2.697625E-12
    @Boys   14   3.3245807057299551E+01   3.761543E-13

    Boys Localizer converged.

  Starting Crude Prescreening...
    T_CUT_MKN set to 1.000e-01
    T_CUT_DO  set to 1.000e-02

  ==> Forming Local MO Domains <==

    Auxiliary BFs per Local MO:
      Average =   63 AUX BFs (1 atoms)
      Min     =   56 AUX BFs (1 atoms)
      Max     =   70 AUX BFs (2 atoms)
  
    Projected AOs per Local MO:
      Average =   44 PAOs (5 atoms)
      Min     =   43 PAOs (5 atoms)
      Max     =   48 PAOs (6 atoms)

    Local MOs per Local MO:
      Average =    4 LMOs
      Min     =    4 LMOs
      Max     =    4 LMOs
 
    Screened 0 of 16 LMO pairs (0.00 %)
             0 pairs met overlap criteria
             4 pairs met energy criteria
 
    Screened LMO pair energy =  0.000000000000 

  ==> Merging LMO Domains into LMO Pair Domains <==
  
    Auxiliary BFs per Local MO pair:
      Average =   68 AUX BFs (1 atoms)
      Min     =   56 AUX BFs (1 atoms)
      Max     =   84 AUX BFs (3 atoms)
  
    Local MOs per Local MO pair:
      Average =    4 LMOs
      Min     =    4 LMOs
      Max     =    4 LMOs
  
    Projected AOs per Local MO pair:
      Average =   45 PAOs (5 atoms)
      Min     =   43 PAOs (5 atoms)
      Max     =   48 PAOs (6 atoms)

  ==> Transforming 3-Index Integrals to LMO/PAO basis <==

  ==> Determining Strong and Weak Pairs (Crude Prescreening Step) <==

  ==> Computing SC-LMP2 Pair Energies <==

    Starting semicanonical (non-iterative) LMP2 step...

    PAO-SC-LMP2 Energy:  -0.196921698010

    Eliminated Pairs                = 0
    (Initial) Weak Pairs            = 0
    (Initial) Strong Pairs          = 16
    Surviving Pairs / Total Pairs   = (100.00 %)
    Eliminated Pair dE              = 0.000000000000

  Starting Refined Prescreening...
    T_CUT_MKN reset to 1.000e-03
    T_CUT_DO  reset to 5.000e-03

  ==> Forming Local MO Domains <==

    Auxiliary BFs per Local MO:
      Average =   87 AUX BFs (3 atoms)
      Min     =   84 AUX BFs (3 atoms)
      Max     =   98 AUX BFs (4 atoms)
  
    Projected AOs per Local MO:
      Average =   48 PAOs (6 atoms)
      Min     =   48 PAOs (6 atoms)
      Max     =   48 PAOs (6 atoms)

    Local MOs per Local MO:
      Average =    4 LMOs
      Min     =    4 LMOs
      Max     =    4 LMOs
 

  ==> Merging LMO Domains into LMO Pair Domains <==
  
    Auxiliary BFs per Local MO pair:
      Average =   90 AUX BFs (3 atoms)
      Min     =   84 AUX BFs (3 atoms)
      Max     =   98 AUX BFs (4 atoms)
  
    Local MOs per Local MO pair:
      Average =    4 LMOs
      Min     =    4 LMOs
      Max     =    4 LMOs
  
    Projected AOs per Local MO pair:
      Average =   48 PAOs (6 atoms)
      Min     =   48 PAOs (6 atoms)
      Max     =   48 PAOs (6 atoms)

  ==> Transforming 3-Index Integrals to LMO/PAO basis <==

  ==> Determining Strong and Weak Pairs (Refined Prescreening Step) <==


  ==> Computing SC-LMP2 Pair Energies <==

    Starting semicanonical (non-iterative) LMP2 step...


  ==> Forming Pair Natural Orbitals (for LMP2) <==
    PAO-SC-LMP2 Energy:  -0.197005532771

  
    Natural Orbitals per Local MO pair:
      Avg:  24 NOs 
      Min:  23 NOs 
      Max:  34 NOs 
      Avg Occ Number Tol: 2.312e-09 
      Min Occ Number Tol: 1.071e-12 
      Max Occ Number Tol: 4.854e-09 
      Avg Trace Sum: 1.000000 
      Min Trace Sum: 1.000000 
      Max Trace Sum: 1.000000 
  
    PNO truncation energy = -0.000000089655
    (Additional) Eliminated Pairs   = 0
    (Final) Weak Pairs              = 0
    (Final) Strong Pairs            = 16
    Strong Pairs / Total Pairs      = (100.00 %)
    (Cumulative) Eliminated Pair dE = 0.000000000000
    Weak Pair dE                    = 0.000000000000


    Auxiliary BFs per Local MO:
      Average =   87 AUX BFs (3 atoms)
      Min     =   84 AUX BFs (3 atoms)
      Max     =   98 AUX BFs (4 atoms)
  
    Projected AOs per Local MO:
      Average =   48 PAOs (6 atoms)
      Min     =   48 PAOs (6 atoms)
      Max     =   48 PAOs (6 atoms)

    Local MOs per Local MO:
      Average =    4 LMOs
      Min     =    4 LMOs
      Max     =    4 LMOs
 

  ==> Merging LMO Domains into LMO Pair Domains <==
  
    Auxiliary BFs per Local MO pair:
      Average =   90 AUX BFs (3 atoms)
      Min     =   84 AUX BFs (3 atoms)
      Max     =   98 AUX BFs (4 atoms)
  
    Local MOs per Local MO pair:
      Average =    4 LMOs
      Min     =    4 LMOs
      Max     =    4 LMOs
  
    Projected AOs per Local MO pair:
      Average =   48 PAOs (6 atoms)
      Min     =   48 PAOs (6 atoms)
      Max     =   48 PAOs (6 atoms)
  ==> PNO-LMP2 Memory Estimate <== 

    PNO/PNO overlaps       : 0.000 [GiB]
    Total Memory Given     : 0.488 [GiB]


  ==> Iterative Local MP2 with Pair Natural Orbitals (PNOs) <==

    E_CONVERGENCE = 1.00e-08
    R_CONVERGENCE = 1.00e-08

                         Corr. Energy    Delta E     Max R     Time (s)
  @PNO-LMP2 iter   0:  -0.201339938739 -2.013e-01  1.076e-03        0
  @PNO-LMP2 iter   1:  -0.203434320350 -2.094e-03  2.665e-04        0
  @PNO-LMP2 iter   2:  -0.203578767755 -1.444e-04  5.717e-05        0
  @PNO-LMP2 iter   3:  -0.203597800332 -1.903e-05  9.974e-06        0
  @PNO-LMP2 iter   4:  -0.203599015221 -1.215e-06  1.336e-06        0
  @PNO-LMP2 iter   5:  -0.203599246933 -2.317e-07  2.159e-07        0
  @PNO-LMP2 iter   6:  -0.203599247094 -1.612e-10  3.775e-08        0
  @PNO-LMP2 iter   7:  -0.203599229836  1.726e-08  7.698e-09        0
  @PNO-LMP2 iter   8:  -0.203599228072  1.764e-09  1.372e-09        0

  ==> Forming Pair Natural Orbitals (for LCCSD) <==
  
    Natural Orbitals per Local MO pair:
      Avg:  21 NOs 
      Min:  20 NOs 
      Max:  29 NOs 
      Avg Occ Number Tol: 9.264e-08 
      Min Occ Number Tol: 1.066e-10 
      Max Occ Number Tol: 1.476e-07 
      Avg Trace Sum: 0.999989 
      Min Trace Sum: 0.999967 
      Max Trace Sum: 1.000000 
  
    Weak pair energy      = 0.000000000000
    PNO truncation energy = -0.000004383109

    Coefficient sparsity in AO -> LMO transform:  40.00 % 
    Coefficient sparsity in AO -> PAO transform:  40.00 % 
    Coefficient sparsity in combined transforms:  40.00 % 

    Storing transformed LMO/LMO, LMO/PAO, and PAO/PAO integrals in sparse format.
    Required memory: 0.002 GiB (41.67 % reduction from dense format) 

  ==> Transforming 3-Index Integrals to LMO/LMO basis <==

  ==> Transforming 3-Index Integrals to PAO/PAO basis <==
    PAO/PAO Integral Memory After Screening: 0.001 [GiB]

  ==> DLPNO-CCSD Memory Estimate <== 

    (q | i j) integrals        : 0.000 [GiB]
    (q | i a) integrals        : 0.000 [GiB]
    (q | a b) integrals        : 0.001 [GiB]
    (m i | n j)                : 0.000 [GiB]
    (i j | k c_{ij})           : 0.000 [GiB]
    (i a_{ij} | j b_{ij})      : 0.000 [GiB]
    (i k | a_{ij} b_{kj})      : 0.000 [GiB]
    (i a_{ij} | b_{ij} c_{ij}) : 0.001 [GiB]
    (Q_{ij}|m_{ij} a_{ij})     : 0.001 [GiB]
    (Q_{ij}|a_{ij} b_{ij})     : 0.003 [GiB]
    PNO/PNO overlaps           : 0.000 [GiB]

    Total Memory Given         : 0.488 [GiB]
    Total Memory Required      : 0.007 [GiB]

    Using high memory PNO overlap algorithm... 

    Storing (Q_{ij}|m_{ij} a_{ij}) integrals in RAM... 

    Storing (Q_{ij}|a_{ij} b_{ij}) integrals in RAM... 

    Computing CC integrals...


  ==> Local CCSD (T1-transformed Hamiltonian) <==

    E_CONVERGENCE = 1.00e-06
    R_CONVERGENCE = 1.00e-06

                      Corr. Energy    Delta E     Max R1     Max R2     Time (s)
  @LCCSD iter   0:  -0.208618431455 -2.086e-01  3.985e-03  1.792e-03        0
  @LCCSD iter   1:  -0.212161778103 -3.543e-03  8.290e-04  6.361e-04        0
  @LCCSD iter   2:  -0.212718266532 -5.565e-04  3.105e-04  1.867e-04        0
  @LCCSD iter   3:  -0.212945784765 -2.275e-04  1.528e-04  6.177e-05        0
  @LCCSD iter   4:  -0.212986405170 -4.062e-05  4.102e-05  1.475e-05        0
  @LCCSD iter   5:  -0.212987941910 -1.537e-06  2.442e-05  4.992e-06        0
  @LCCSD iter   6:  -0.212988418261 -4.764e-07  9.615e-06  2.557e-06        0
  @LCCSD iter   7:  -0.212989428841 -1.011e-06  5.588e-06  8.846e-07        0
  @LCCSD iter   8:  -0.212989792622 -3.638e-07  2.177e-06  3.840e-07        0
  @LCCSD iter   9:  -0.212990040618 -2.480e-07  9.677e-07  1.393e-07        0

  T1 Diagnostic: 0.00730781 
  
  Total DLPNO-CCSD Correlation Energy:  -0.212994423727 
    CCSD Correlation Energy:            -0.212990040618 
    Eliminated Pair MP2 Correction       0.000000000000 
    Weak Pair MP2 Correction:            0.000000000000 
    Weak Pair Dispersion Correction:     0.000000000000 
    Dipole Pair Correction:              0.000000000000 
    PNO Truncation Correction:          -0.000004383109 


  @Total DLPNO-CCSD Energy: -76.242688472955 
   --------------------------------------------
                    DLPNO-CCSD(T)              
                    by Andy Jiang              
   --------------------------------------------

  DLPNO convergence set to TIGHT.

  Detailed DLPNO thresholds and cutoffs:
    ALGORITHM    = ITERATIVE (T)   
    STORAGE      = IN CORE   
    T_CUT_TNO (T0)             = 1.000e-09 
    T_CUT_DO_TRIPLES (T0)      = 1.000e-02 
    T_CUT_MKN_TRIPLES (T0)     = 1.000e-02 
    T_CUT_TRIPLES_WEAK (T0)    = 1.000e-07 
    T_CUT_TNO_PRE (T0)         = 1.000e-07 
    T_CUT_DO_TRIPLES_PRE (T0)  = 2.000e-02 
    T_CUT_MKN_TRIPLES_PRE (T0) = 1.000e-01 
    T_CUT_TNO_STRONG (T)       = 1.000e-08 
    T_CUT_TNO_WEAK (T)         = 1.000e-07 
    F_CUT_T (T)                = 1.000e-03 
    T_CUT_ITER (T)             = 1.000e-03 



   Starting Triplet Prescreening...
     T_CUT_TNO set to 1.000e-07 
     T_CUT_DO  set to 2.000e-02 
     T_CUT_MKN set to 1.000e-01 

  
    Number of (Unique) Local MO triplets: 16
    Max Number of Possible (Unique) LMO Triplets: 16 (Ratio: 1.0000)
    Natural Orbitals per Local MO triplet:
      Avg:  20 NOs 
      Min:  20 NOs 
      Max:  22 NOs 
  

   Continuing computation with surviving triplets...
     Eliminated all triples with energy less than 1.000e-07 Eh... 

    * Energy Contribution From Screened Triplets: 0.000000000000 

     T_CUT_TNO (re)set to 1.000e-09 
     T_CUT_DO  (re)set to 1.000e-02 
     T_CUT_MKN (re)set to 1.000e-02 

  
    Number of (Unique) Local MO triplets: 16
    Max Number of Possible (Unique) LMO Triplets: 16 (Ratio: 1.0000)
    Natural Orbitals per Local MO triplet:
      Avg:  24 NOs 
      Min:  24 NOs 
      Max:  27 NOs 
  
    DLPNO-CCSD(T0) Correlation Energy:  -0.216110184230 
    * DLPNO-CCSD Contribution:          -0.212990040618 
    * DLPNO-(T0) Contribution:          -0.003120143612 
    * Screened Triplets Contribution:    0.000000000000 



  ==> Computing Full Iterative (T) <==

  ==> Sorting Triplets <== 

    Number of Strong Triplets:     14, Total Triplets:     16, Ratio: 0.8750

     T_CUT_TNO (re)set to 1.000e-08 for strong triples 
     T_CUT_TNO (re)set to 1.000e-07 for weak triples   

  
    Number of (Unique) Local MO triplets: 16
    Max Number of Possible (Unique) LMO Triplets: 16 (Ratio: 1.0000)
    Natural Orbitals per Local MO triplet:
      Avg:  22 NOs 
      Min:  20 NOs 
      Max:  24 NOs 
  

  ==> DLPNO-(T) Memory Estimate <== 

    (q | i j) integrals    : 0.000 [GiB]
    (q | i a) integrals    : 0.000 [GiB]
    (q | a b) integrals    : 0.001 [GiB]
    W_{ijk}^{abc}          : 0.001 [GiB]
    V_{ijk}^{abc}          : 0.001 [GiB]
    T_{ijk}^{abc}          : 0.001 [GiB]
    Total Memory Given     : 0.488 [GiB]
    Total Memory Required  : 0.005 [GiB]

    Storing all X_{ijk}^{abc} quantities in RAM...


  ==> Local CCSD(T) <==

    E_CONVERGENCE = 1.00e-06
    R_CONVERGENCE = 1.00e-06

                         Corr. Energy    Delta E     Max R     Time (s)
  @LCCSD(T) iter   1:  -0.003224092055 -3.224e-03  2.306e-05        0
  @LCCSD(T) iter   2:  -0.003243858290 -1.977e-05  3.753e-06        0
  @LCCSD(T) iter   3:  -0.003244451223 -5.929e-07  8.343e-07        0

    DLPNO-CCSD(T0) energy at looser tolerance:  -0.003119350914
    DLPNO-CCSD(T)  energy at looser tolerance:  -0.003244451223
    * Net Iterative (T) contribution:           -0.000125100309

  
  Total DLPNO-CCSD(T) Correlation Energy:  -0.216239667648 
    DLPNO-CCSD Contribution:               -0.212994423727 
    DLPNO-(T) Contribution:                -0.003245243921 
    Screened Triplets Contribution:         0.000000000000 
    Andy Jiang... FOR THREEEEEEEEEEE!!!


  @Total DLPNO-CCSD(T) Energy: -76.245933716875 
   --------------------------------------------
                    DLPNO-CCSDT                
                   by Andy Jiang               
   --------------------------------------------

  DLPNO convergence set to TIGHT.

  Detailed DLPNO thresholds and cutoffs:
    T_CUT_TNO_STRONG           = 1.000e-08 
    T_CUT_TNO_WEAK             = 1.000e-07 
    T_CUT_DO_TRIPLES           = 1.000e-02 
    T_CUT_MKN_TRIPLES          = 1.000e-02 
    F_CUT_T                    = 1.000e-03 

 ==> DLPNO-CCSDT Memory Estimate <== 

    (i j | l_{ijk} a_{ijk})        : 0.001 [GiB]
    (i a_{ijk} | l_{ijk} b_{ijk})  : 0.012 [GiB]
    (i a_{ijk} | b_{ijk} c_{ijk})  : 0.065 [GiB]
    (Q_{ijk} | l_{ijk} [i,j,k])    : 0.002 [GiB]
    (Q_{ijk} | l_{ijk} a_{ijk})    : 0.037 [GiB]
    (Q_{ijk} | a_{ijk} b_{ijk})    : 0.069 [GiB]
    Total Memory Required          : 0.184 [GiB]


  ==> Local CCSDT <==

    E_CONVERGENCE = 1.00e-06
    R_CONVERGENCE = 1.00e-06

                       Corr. Energy    Delta E     Max R1     Max R2     Max R3     Time (s)
  @LCCSDT iter   1:  -0.216050071523 -2.161e-01  4.146e-04  2.449e-04  4.524e-06        0
  @LCCSDT iter   2:  -0.216095044600 -4.497e-05  1.313e-04  3.689e-05  1.057e-05        0
  @LCCSDT iter   3:  -0.216282874182 -1.878e-04  5.976e-05  2.588e-05  2.470e-06        0
  @LCCSDT iter   4:  -0.216293805814 -1.093e-05  3.369e-05  9.029e-06  1.676e-06        0
  @LCCSDT iter   5:  -0.216322917866 -2.911e-05  1.773e-05  6.453e-06  7.586e-07        0
  @LCCSDT iter   6:  -0.216323593217 -6.754e-07  1.148e-05  3.592e-06  5.393e-07        0
  @LCCSDT iter   7:  -0.216330809351 -7.216e-06  7.108e-06  2.386e-06  3.096e-07        0
  @LCCSDT iter   8:  -0.216330245702  5.636e-07  4.492e-06  1.625e-06  2.379e-07        0
  @LCCSDT iter   9:  -0.216332600460 -2.355e-06  2.980e-06  1.164e-06  1.520e-07        0
  @LCCSDT iter  10:  -0.216332114546  4.859e-07  1.891e-06  7.983e-07  1.250e-07        0
  @LCCSDT iter  11:  -0.216333030325 -9.158e-07  1.298e-06  6.117e-07  8.336e-08        0
  @LCCSDT iter  12:  -0.216332725823  3.045e-07  8.380e-07  4.147e-07  6.842e-08        0
  
  Total DLPNO-CCSDT Correlation Energy:  -0.216337901630 
    LCCSDT Correlation Energy:           -0.216332725823 
    Full (T) - Iterative (T) Diff:       -0.000000792698 
    Net non-strong pair contributions:   -0.000004383109 
    Andy Jiang... FOR THREEEEEEEEEEE!!!


  @Total DLPNO-CCSDT Energy: -76.246031950858 

    Psi4 stopped on: Monday, 26 August 2024 03:59PM
    Psi4 wall time for execution: 0:00:01.10


    -----------------------------------------------------------------------
          Psi4: An Open-Source Ab Initio Electronic Structure Package
                               Psi4 1.10a1.dev47 

                         Git: Rev {dlpno_ccsd_t_1_9} 6cef7c8 dirty


    D. G. A. Smith, L. A. Burns, A. C. Simmonett, R. M. Parrish,
    M. C. Schieber, R. Galvelis, P. Kraus, H. Kruse, R. Di Remigio,
    A. Alenaizan, A. M. James, S. Lehtola, J. P. Misiewicz, M. Scheurer,
    R. A. Shaw, J. B. Schriber, Y. Xie, Z. L. Glick, D. A. Sirianni,
    J. S. O'Brien, J. M. Waldrop, A. Kumar, E. G. Hohenstein,
    B. P. Pritchard, B. R. Brooks, H. F. Schaefer III, A. Yu. Sokolov,
    K. Patkowski, A. E. DePrince III, U. Bozkaya, R. A. King,
    F. A. Evangelista, J. M. Turney, T. D. Crawford, C. D. Sherrill,
    J. Chem. Phys. 152(18) 184108 (2020). https://doi.org/10.1063/5.0006002

                            Additional Code Authors
    E. T. Seidl, C. L. Janssen, E. F. Valeev, M. L. Leininger,
    J. F. Gonthier, R. M. Richard, H. R. McAlexander, M. Saitow, X. Wang,
    P. Verma, M. H. Lechner, A. Jiang, S. Behnle, A. G. Heide,
    M. F. Herbst, and D. L. Poole

             Previous Authors, Complete List of Code Contributors,
                       and Citations for Specific Modules
    https://github.com/psi4/psi4/blob/master/codemeta.json
    https://github.com/psi4/psi4/graphs/contributors
    http://psicode.org/psi4manual/master/introduction.html#citing-psifour

    -----------------------------------------------------------------------


    Psi4 started on: Monday, 26 August 2024 03:59PM

    Process ID: 1371694
    Host:       b6-9
    PSIDATADIR: /home/aj48384/github/psi4/objdir_p4sums/stage/share/psi4
    Memory:     500.0 MiB
    Threads:    32
    
  ==> Input QCSchema <==

--------------------------------------------------------------------------
{'driver': 'energy',
 'extras': {'psiapi': True, 'wfn_qcvars_only': True},
 'id': None,
 'keywords': {'CC_TYPE': 'CONV',
              'DF_BASIS_MP2': 'CC-PVDZ-RI',
              'E_CONVERGENCE': 1e-06,
              'FREEZE_CORE': 'TRUE',
              'MP2_TYPE': 'DF',
              'PNO_CONVERGENCE': 'TIGHT',
              'R_CONVERGENCE': 1e-06,
              'SCF_TYPE': 'DF',
              'function_kwargs': {}},
 'model': {'basis': 'cc-pvdz', 'method': 'dlpno_ccsdt_q'},
 'molecule': {'atom_labels': ['', '', '', '', '', ''],
              'atomic_numbers': [8, 1, 1, 8, 1, 1],
              'extras': {},
              'fix_com': True,
              'fix_orientation': True,
              'fix_symmetry': 'c1',
              'fragment_charges': [0.0, 0.0],
              'fragment_multiplicities': [1, 1],
              'fragments': [[0, 1, 2], [3, 4, 5]],
              'geometry': [-2.8065519757000907, -0.21679800591221124, 1.1865220829071016e-18, -3.5307932927340544,
                           1.4405352698151894, 1.1865220829071016e-18, -1.0087988207682952, 0.07654795999485833,
                           1.1865220829071016e-18, 2.676737821164358, 0.21025931145387788, 1.1865220829071016e-18,
                           3.2999184747349624, -0.7066547018795148, -1.4334725394534156, 3.2999184747349624,
                           -0.7066547018795148, 1.4334725394534156],
              'mass_numbers': [16, 1, 1, 16, 1, 1],
              'masses': [15.99491461957, 1.00782503223, 1.00782503223, 15.99491461957, 1.00782503223, 1.00782503223],
              'molecular_charge': 0.0,
              'molecular_multiplicity': 1,
              'name': 'mol',
              'provenance': {'creator': 'QCElemental',
                             'routine': 'qcelemental.molparse.from_string',
                             'version': '0.28.0'},
              'real': [True, True, True, False, False, False],
              'schema_name': 'qcschema_molecule',
              'schema_version': 2,
              'symbols': ['O', 'H', 'H', 'O', 'H', 'H'],
              'validated': True},
 'protocols': {'stdout': True},
 'provenance': {'creator': 'QCElemental', 'routine': 'qcelemental.models.results', 'version': '0.28.0'},
 'schema_name': 'qcschema_input',
 'schema_version': 1}
--------------------------------------------------------------------------

Scratch directory: /tmp/
   => Libint2 <=

    Primary   basis highest AM E, G, H:  6, 6, 3
    Auxiliary basis highest AM E, G, H:  7, 7, 4
    Onebody   basis highest AM E, G, H:  -, -, -
    Solid Harmonics ordering:            Gaussian

*** tstart() called on b6-9
*** at Mon Aug 26 15:59:50 2024

   => Loading Basis Set <=

    Name: CC-PVDZ
    Role: ORBITAL
    Keyword: BASIS
    atoms 1, 4     entry O          line   198 file /home/aj48384/github/psi4/objdir_p4sums/stage/share/psi4/basis/cc-pvdz.gbs 
    atoms 2-3, 5-6 entry H          line    22 file /home/aj48384/github/psi4/objdir_p4sums/stage/share/psi4/basis/cc-pvdz.gbs 


         ---------------------------------------------------------
                                   SCF
               by Justin Turney, Rob Parrish, Andy Simmonett
                          and Daniel G. A. Smith
                              RHF Reference
                       32 Threads,    500 MiB Core
         ---------------------------------------------------------

  ==> Geometry <==

    Molecular point group: c1
    Full point group: Cs

    Geometry (in Bohr), charge = 0, multiplicity = 1:

       Center              X                  Y                   Z               Mass       
    ------------   -----------------  -----------------  -----------------  -----------------
         O           -2.806551975700    -0.216798005912     0.000000000000    15.994914619570
         H           -3.530793292734     1.440535269815     0.000000000000     1.007825032230
         H           -1.008798820768     0.076547959995     0.000000000000     1.007825032230
      Gh(O)           2.676737821164     0.210259311454     0.000000000000    15.994914619570
      Gh(H)           3.299918474735    -0.706654701880    -1.433472539453     1.007825032230
      Gh(H)           3.299918474735    -0.706654701880     1.433472539453     1.007825032230

  Running in c1 symmetry.

  Rotational constants: A =      7.15151  B =      0.21457  C =      0.21447 [cm^-1]
  Rotational constants: A = 214396.91837  B =   6432.69061  C =   6429.61818 [MHz]
  Nuclear repulsion =    9.163830181985562

  Charge       = 0
  Multiplicity = 1
  Electrons    = 10
  Nalpha       = 5
  Nbeta        = 5

  ==> Algorithm <==

  SCF Algorithm Type is DF.
  DIIS enabled.
  MOM disabled.
  Fractional occupation disabled.
  Guess Type is SAD.
  Energy threshold   = 1.00e-06
  Density threshold  = 1.00e-08
  Integral threshold = 1.00e-12

  ==> Primary Basis <==

  Basis Set: CC-PVDZ
    Blend: CC-PVDZ
    Number of shells: 24
    Number of basis functions: 48
    Number of Cartesian functions: 50
    Spherical Harmonics?: true
    Max angular momentum: 2

   => Loading Basis Set <=

    Name: (CC-PVDZ AUX)
    Role: JKFIT
    Keyword: DF_BASIS_SCF
    atoms 1, 4     entry O          line   221 file /home/aj48384/github/psi4/objdir_p4sums/stage/share/psi4/basis/cc-pvdz-jkfit.gbs 
    atoms 2-3, 5-6 entry H          line    51 file /home/aj48384/github/psi4/objdir_p4sums/stage/share/psi4/basis/cc-pvdz-jkfit.gbs 

  ==> Integral Setup <==

  DFHelper Memory: AOs need 0.005 GiB; user supplied 0.366 GiB. 
  SCF_SUBTYPE=INCORE selected. In-core MEM_DF algorithm will be used.
  Using in-core AOs.

  ==> MemDFJK: Density-Fitted J/K Matrices <==

    J tasked:                   Yes
    K tasked:                   Yes
    wK tasked:                   No
    OpenMP threads:              32
    Memory [MiB]:               375
    Algorithm:                 Core
    Schwarz Cutoff:           1E-12
    Mask sparsity (%):       0.0000
    Fitting Condition:        1E-10

   => Auxiliary Basis Set <=

  Basis Set: (CC-PVDZ AUX)
    Blend: CC-PVDZ-JKFIT
    Number of shells: 84
    Number of basis functions: 232
    Number of Cartesian functions: 262
    Spherical Harmonics?: true
    Max angular momentum: 3

  Minimum eigenvalue in the overlap matrix is 3.0512226358E-02.
  Reciprocal condition number of the overlap matrix is 7.7055058080E-03.
    Using symmetric orthogonalization.

  ==> Pre-Iterations <==

  SCF Guess: Superposition of Atomic Densities via on-the-fly atomic UHF (no occupation information).

   -------------------------
    Irrep   Nso     Nmo    
   -------------------------
     A         48      48 
   -------------------------
    Total      48      48
   -------------------------

  ==> Iterations <==

                           Total Energy        Delta E     RMS |[F,P]|

   @DF-RHF iter SAD:   -75.50719280796341   -7.55072e+01   0.00000e+00 
   @DF-RHF iter   1:   -75.95402117276434   -4.46828e-01   8.70043e-03 DIIS/ADIIS
   @DF-RHF iter   2:   -76.00719082303463   -5.31697e-02   5.00490e-03 DIIS/ADIIS
   @DF-RHF iter   3:   -76.02650032196027   -1.93095e-02   4.78532e-04 DIIS/ADIIS
   @DF-RHF iter   4:   -76.02690970282582   -4.09381e-04   1.05192e-04 DIIS/ADIIS
   @DF-RHF iter   5:   -76.02692949098601   -1.97882e-05   1.93410e-05 DIIS
   @DF-RHF iter   6:   -76.02693043247268   -9.41487e-07   3.07657e-06 DIIS
   @DF-RHF iter   7:   -76.02693045875809   -2.62854e-08   4.24752e-07 DIIS
   @DF-RHF iter   8:   -76.02693045927215   -5.14063e-10   9.91633e-08 DIIS
   @DF-RHF iter   9:   -76.02693045930504   -3.28839e-11   1.75122e-08 DIIS
   @DF-RHF iter  10:   -76.02693045930567   -6.39488e-13   1.42806e-09 DIIS
  Energy and wave function converged.


  ==> Post-Iterations <==

    Orbital Energies [Eh]
    ---------------------

    Doubly Occupied:                                                      

       1A    -20.552004     2A     -1.335767     3A     -0.697798  
       4A     -0.566808     5A     -0.493506  

    Virtual:                                                              

       6A      0.113072     7A      0.207537     8A      0.243507  
       9A      0.306176    10A      0.582502    11A      0.677281  
      12A      0.765351    13A      0.818765    14A      0.825240  
      15A      0.901511    16A      1.164974    17A      1.199695  
      18A      1.286737    19A      1.460225    20A      1.464686  
      21A      1.619369    22A      1.666114    23A      1.694851  
      24A      1.903679    25A      1.917788    26A      1.956183  
      27A      1.974833    28A      2.087944    29A      2.324277  
      30A      2.468382    31A      2.529781    32A      2.588330  
      33A      2.801086    34A      3.124972    35A      3.287605  
      36A      3.340110    37A      3.514112    38A      3.872040  
      39A      4.159953    40A      4.418982    41A      4.495796  
      42A      4.671685    43A      4.773452    44A      4.934038  
      45A      5.395628    46A      6.527648    47A      6.990070  
      48A     33.469935  

    Final Occupation by Irrep:
              A 
    DOCC [     5 ]
    NA   [     5 ]
    NB   [     5 ]

  @DF-RHF Final Energy:   -76.02693045930567

   => Energetics <=

    Nuclear Repulsion Energy =              9.1638301819855617
    One-Electron Energy =                -123.0897541905329007
    Two-Electron Energy =                  37.8989935492416663
    Total Energy =                        -76.0269304593056745

Computation Completed


Properties will be evaluated at   0.000000,   0.000000,   0.000000 [a0]

Properties computed using the SCF density matrix


 Multipole Moments:

 ------------------------------------------------------------------------------------
     Multipole            Electronic (a.u.)      Nuclear  (a.u.)        Total (a.u.)
 ------------------------------------------------------------------------------------

 L = 1.  Multiply by 2.5417464519 to convert [e a0] to [Debye]
 Dipole X            :         27.3771080          -26.9920079            0.3851001
 Dipole Y            :          0.9312720           -0.2173008            0.7139712
 Dipole Z            :         -0.0000000            0.0000000           -0.0000000
 Magnitude           :                                                    0.8112071

 ------------------------------------------------------------------------------------

*** tstop() called on b6-9 at Mon Aug 26 15:59:50 2024
Module time:
	user time   =       7.74 seconds =       0.13 minutes
	system time =       0.36 seconds =       0.01 minutes
	total time  =          0 seconds =       0.00 minutes
Total time:
	user time   =      40.01 seconds =       0.67 minutes
	system time =       1.62 seconds =       0.03 minutes
	total time  =          1 seconds =       0.02 minutes
 MINTS: Wrapper to libmints.
   by Justin Turney

   Calculation information:
      Number of threads:                32
      Number of atoms:                   6
      Number of AO shells:              24
      Number of SO shells:              24
      Number of primitives:             64
      Number of atomic orbitals:        50
      Number of basis functions:        48

      Number of irreps:                  1
      Integral cutoff                 1.00e-12
      Number of functions per irrep: [  48 ]

 OEINTS: Overlap, kinetic, potential, dipole, and quadrupole integrals
         stored in file 35.

      Computing two-electron integrals...done
      Computed 521329 non-zero two-electron integrals.
        Stored in file 33.

   => Loading Basis Set <=

    Name: CC-PVDZ-RI
    Role: RIFIT
    Keyword: DF_BASIS_MP2
    atoms 1, 4     entry O          line   235 file /home/aj48384/github/psi4/objdir_p4sums/stage/share/psi4/basis/cc-pvdz-ri.gbs 
    atoms 2-3, 5-6 entry H          line    19 file /home/aj48384/github/psi4/objdir_p4sums/stage/share/psi4/basis/cc-pvdz-ri.gbs 


Reading options from the DLPNO_CCSDT_Q block
Calling plugin dlpno_ccsdt_q.so.


Plugins that use gradients: set Da, Db, and Lagrangian for gradient theory on the wavefunction. The old way of passing these will stop working as soon as 1.8.   --------------------------------------------
                    DLPNO-CCSD                 
                   by Andy Jiang               
   --------------------------------------------

  DLPNO convergence set to TIGHT.

  Detailed DLPNO thresholds and cutoffs:
    T_CUT_PNO        = 1.0000e-07 
    DIAG_SCALE       = 1.0000e-03 
    T_CUT_TRACE      = 9.9900e-01 
    T_CUT_ENERGY     = 9.9700e-01 
    T_CUT_PAIRS      = 1.0000e-05 
    T_CUT_PRE        = 1.0000e-07 
    T_CUT_DO_PRE     = 3.0000e-02 
    T_CUT_MKN        = 1.0000e-03 
    T_CUT_PNO_MP2    = 1.0000e-09 
    T_CUT_TRACE_MP2  = 9.9990e-01 
    T_CUT_ENERGY_MP2 = 9.9900e-01 
    T_CUT_DO         = 5.0000e-03 
    T_CUT_DO_ij      = 1.0000e-05 
    T_CUT_DO_uv      = 1.0000e-05 
    T_CUT_CLMO       = 1.0000e-03 
    T_CUT_CPAO       = 1.0000e-03 
    S_CUT            = 1.0000e-08 
    F_CUT            = 1.0000e-05 
    INTS_TOL (AO)    = 1.0000e-10 


  ==> Basis Set Information <==

   ----------------------------------------------
      NBF   NFRZC   NACT   NDOCC   NVIR   NAUX   
   ----------------------------------------------
       48      1      4       5      43    168
   ----------------------------------------------

  ==> Boys Localizer <==

    Convergence =   1.000E-12
    Maxiter     =        1000

    Iteration                   Metric       Residual
    @Boys    0   2.9788972976155549E+01              -
    @Boys    1   3.1831616996794846E+01   6.857047E-02
    @Boys    2   3.2120204912097712E+01   9.066078E-03
    @Boys    3   3.2155889911604788E+01   1.110983E-03
    @Boys    4   3.2160431747097640E+01   1.412443E-04
    @Boys    5   3.2160762025896886E+01   1.026973E-05
    @Boys    6   3.2160824638238942E+01   1.946855E-06
    @Boys    7   3.2160833631548407E+01   2.796355E-07
    @Boys    8   3.2160835261793046E+01   5.069037E-08
    @Boys    9   3.2160835474146801E+01   6.602868E-09
    @Boys   10   3.2160835535531618E+01   1.908682E-09
    @Boys   11   3.2160835541997244E+01   2.010404E-10
    @Boys   12   3.2160835543459910E+01   4.547974E-11
    @Boys   13   3.2160835543702213E+01   7.534076E-12
    @Boys   14   3.2160835543739417E+01   1.156811E-12
    @Boys   15   3.2160835543744163E+01   1.475840E-13

    Boys Localizer converged.

  Starting Crude Prescreening...
    T_CUT_MKN set to 1.000e-01
    T_CUT_DO  set to 1.000e-02

  ==> Forming Local MO Domains <==

    Auxiliary BFs per Local MO:
      Average =   63 AUX BFs (1 atoms)
      Min     =   56 AUX BFs (1 atoms)
      Max     =   70 AUX BFs (2 atoms)
  
    Projected AOs per Local MO:
      Average =   48 PAOs (6 atoms)
      Min     =   48 PAOs (6 atoms)
      Max     =   48 PAOs (6 atoms)

    Local MOs per Local MO:
      Average =    4 LMOs
      Min     =    4 LMOs
      Max     =    4 LMOs
 
    Screened 0 of 16 LMO pairs (0.00 %)
             0 pairs met overlap criteria
             4 pairs met energy criteria
 
    Screened LMO pair energy =  0.000000000000 

  ==> Merging LMO Domains into LMO Pair Domains <==
  
    Auxiliary BFs per Local MO pair:
      Average =   68 AUX BFs (1 atoms)
      Min     =   56 AUX BFs (1 atoms)
      Max     =   84 AUX BFs (3 atoms)
  
    Local MOs per Local MO pair:
      Average =    4 LMOs
      Min     =    4 LMOs
      Max     =    4 LMOs
  
    Projected AOs per Local MO pair:
      Average =   48 PAOs (6 atoms)
      Min     =   48 PAOs (6 atoms)
      Max     =   48 PAOs (6 atoms)

  ==> Transforming 3-Index Integrals to LMO/PAO basis <==

  ==> Determining Strong and Weak Pairs (Crude Prescreening Step) <==

  ==> Computing SC-LMP2 Pair Energies <==

    Starting semicanonical (non-iterative) LMP2 step...

    PAO-SC-LMP2 Energy:  -0.195564865431

    Eliminated Pairs                = 0
    (Initial) Weak Pairs            = 0
    (Initial) Strong Pairs          = 16
    Surviving Pairs / Total Pairs   = (100.00 %)
    Eliminated Pair dE              = 0.000000000000

  Starting Refined Prescreening...
    T_CUT_MKN reset to 1.000e-03
    T_CUT_DO  reset to 5.000e-03

  ==> Forming Local MO Domains <==

    Auxiliary BFs per Local MO:
      Average =   84 AUX BFs (3 atoms)
      Min     =   84 AUX BFs (3 atoms)
      Max     =   84 AUX BFs (3 atoms)
  
    Projected AOs per Local MO:
      Average =   48 PAOs (6 atoms)
      Min     =   48 PAOs (6 atoms)
      Max     =   48 PAOs (6 atoms)

    Local MOs per Local MO:
      Average =    4 LMOs
      Min     =    4 LMOs
      Max     =    4 LMOs
 

  ==> Merging LMO Domains into LMO Pair Domains <==
  
    Auxiliary BFs per Local MO pair:
      Average =   84 AUX BFs (3 atoms)
      Min     =   84 AUX BFs (3 atoms)
      Max     =   84 AUX BFs (3 atoms)
  
    Local MOs per Local MO pair:
      Average =    4 LMOs
      Min     =    4 LMOs
      Max     =    4 LMOs
  
    Projected AOs per Local MO pair:
      Average =   48 PAOs (6 atoms)
      Min     =   48 PAOs (6 atoms)
      Max     =   48 PAOs (6 atoms)

  ==> Transforming 3-Index Integrals to LMO/PAO basis <==

  ==> Determining Strong and Weak Pairs (Refined Prescreening Step) <==


  ==> Computing SC-LMP2 Pair Energies <==

    Starting semicanonical (non-iterative) LMP2 step...


  ==> Forming Pair Natural Orbitals (for LMP2) <==
    PAO-SC-LMP2 Energy:  -0.195615435746

  
    Natural Orbitals per Local MO pair:
      Avg:  23 NOs 
      Min:  21 NOs 
      Max:  28 NOs 
      Avg Occ Number Tol: 2.996e-09 
      Min Occ Number Tol: 3.284e-12 
      Max Occ Number Tol: 5.403e-09 
      Avg Trace Sum: 1.000000 
      Min Trace Sum: 0.999999 
      Max Trace Sum: 1.000000 
  
    PNO truncation energy = -0.000000093188
    (Additional) Eliminated Pairs   = 0
    (Final) Weak Pairs              = 0
    (Final) Strong Pairs            = 16
    Strong Pairs / Total Pairs      = (100.00 %)
    (Cumulative) Eliminated Pair dE = 0.000000000000
    Weak Pair dE                    = 0.000000000000


    Auxiliary BFs per Local MO:
      Average =   84 AUX BFs (3 atoms)
      Min     =   84 AUX BFs (3 atoms)
      Max     =   84 AUX BFs (3 atoms)
  
    Projected AOs per Local MO:
      Average =   48 PAOs (6 atoms)
      Min     =   48 PAOs (6 atoms)
      Max     =   48 PAOs (6 atoms)

    Local MOs per Local MO:
      Average =    4 LMOs
      Min     =    4 LMOs
      Max     =    4 LMOs
 

  ==> Merging LMO Domains into LMO Pair Domains <==
  
    Auxiliary BFs per Local MO pair:
      Average =   84 AUX BFs (3 atoms)
      Min     =   84 AUX BFs (3 atoms)
      Max     =   84 AUX BFs (3 atoms)
  
    Local MOs per Local MO pair:
      Average =    4 LMOs
      Min     =    4 LMOs
      Max     =    4 LMOs
  
    Projected AOs per Local MO pair:
      Average =   48 PAOs (6 atoms)
      Min     =   48 PAOs (6 atoms)
      Max     =   48 PAOs (6 atoms)
  ==> PNO-LMP2 Memory Estimate <== 

    PNO/PNO overlaps       : 0.000 [GiB]
    Total Memory Given     : 0.488 [GiB]


  ==> Iterative Local MP2 with Pair Natural Orbitals (PNOs) <==

    E_CONVERGENCE = 1.00e-08
    R_CONVERGENCE = 1.00e-08

                         Corr. Energy    Delta E     Max R     Time (s)
  @PNO-LMP2 iter   0:  -0.199901263408 -1.999e-01  1.077e-03        0
  @PNO-LMP2 iter   1:  -0.201947961546 -2.047e-03  2.899e-04        0
  @PNO-LMP2 iter   2:  -0.202085669474 -1.377e-04  5.829e-05        0
  @PNO-LMP2 iter   3:  -0.202103631399 -1.796e-05  1.078e-05        0
  @PNO-LMP2 iter   4:  -0.202104665563 -1.034e-06  1.383e-06        0
  @PNO-LMP2 iter   5:  -0.202104852550 -1.870e-07  2.407e-07        0
  @PNO-LMP2 iter   6:  -0.202104852870 -3.201e-10  4.049e-08        0
  @PNO-LMP2 iter   7:  -0.202104835734  1.714e-08  8.098e-09        0
  @PNO-LMP2 iter   8:  -0.202104833989  1.746e-09  1.495e-09        0

  ==> Forming Pair Natural Orbitals (for LCCSD) <==
  
    Natural Orbitals per Local MO pair:
      Avg:  20 NOs 
      Min:  19 NOs 
      Max:  23 NOs 
      Avg Occ Number Tol: 1.476e-07 
      Min Occ Number Tol: 1.588e-10 
      Max Occ Number Tol: 3.164e-07 
      Avg Trace Sum: 0.999990 
      Min Trace Sum: 0.999984 
      Max Trace Sum: 1.000000 
  
    Weak pair energy      = 0.000000000000
    PNO truncation energy = -0.000003556978

    Coefficient sparsity in AO -> LMO transform:  50.00 % 
    Coefficient sparsity in AO -> PAO transform:  50.00 % 
    Coefficient sparsity in combined transforms:  50.00 % 

    Storing transformed LMO/LMO, LMO/PAO, and PAO/PAO integrals in sparse format.
    Required memory: 0.002 GiB (50.00 % reduction from dense format) 

  ==> Transforming 3-Index Integrals to LMO/LMO basis <==

  ==> Transforming 3-Index Integrals to PAO/PAO basis <==
    PAO/PAO Integral Memory After Screening: 0.001 [GiB]

  ==> DLPNO-CCSD Memory Estimate <== 

    (q | i j) integrals        : 0.000 [GiB]
    (q | i a) integrals        : 0.000 [GiB]
    (q | a b) integrals        : 0.001 [GiB]
    (m i | n j)                : 0.000 [GiB]
    (i j | k c_{ij})           : 0.000 [GiB]
    (i a_{ij} | j b_{ij})      : 0.000 [GiB]
    (i k | a_{ij} b_{kj})      : 0.000 [GiB]
    (i a_{ij} | b_{ij} c_{ij}) : 0.001 [GiB]
    (Q_{ij}|m_{ij} a_{ij})     : 0.001 [GiB]
    (Q_{ij}|a_{ij} b_{ij})     : 0.003 [GiB]
    PNO/PNO overlaps           : 0.000 [GiB]

    Total Memory Given         : 0.488 [GiB]
    Total Memory Required      : 0.006 [GiB]

    Using high memory PNO overlap algorithm... 

    Storing (Q_{ij}|m_{ij} a_{ij}) integrals in RAM... 

    Storing (Q_{ij}|a_{ij} b_{ij}) integrals in RAM... 

    Computing CC integrals...


  ==> Local CCSD (T1-transformed Hamiltonian) <==

    E_CONVERGENCE = 1.00e-06
    R_CONVERGENCE = 1.00e-06

                      Corr. Energy    Delta E     Max R1     Max R2     Time (s)
  @LCCSD iter   0:  -0.207544657704 -2.075e-01  4.246e-03  2.068e-03        0
  @LCCSD iter   1:  -0.210997173085 -3.453e-03  8.575e-04  7.294e-04        0
  @LCCSD iter   2:  -0.211564056702 -5.669e-04  2.885e-04  2.099e-04        0
  @LCCSD iter   3:  -0.211758261072 -1.942e-04  8.948e-05  6.627e-05        0
  @LCCSD iter   4:  -0.211789154444 -3.089e-05  3.692e-05  1.473e-05        0
  @LCCSD iter   5:  -0.211789341435 -1.870e-07  2.067e-05  4.820e-06        0
  @LCCSD iter   6:  -0.211790054214 -7.128e-07  9.168e-06  2.338e-06        0
  @LCCSD iter   7:  -0.211790964903 -9.107e-07  4.050e-06  8.533e-07        0
  @LCCSD iter   8:  -0.211791441613 -4.767e-07  1.556e-06  2.871e-07        0
  @LCCSD iter   9:  -0.211791672911 -2.313e-07  3.806e-07  1.173e-07        0

  T1 Diagnostic: 0.00615158 
  
  Total DLPNO-CCSD Correlation Energy:  -0.211795229889 
    CCSD Correlation Energy:            -0.211791672911 
    Eliminated Pair MP2 Correction       0.000000000000 
    Weak Pair MP2 Correction:            0.000000000000 
    Weak Pair Dispersion Correction:     0.000000000000 
    Dipole Pair Correction:              0.000000000000 
    PNO Truncation Correction:          -0.000003556978 


  @Total DLPNO-CCSD Energy: -76.238725689194 
   --------------------------------------------
                    DLPNO-CCSD(T)              
                    by Andy Jiang              
   --------------------------------------------

  DLPNO convergence set to TIGHT.

  Detailed DLPNO thresholds and cutoffs:
    ALGORITHM    = ITERATIVE (T)   
    STORAGE      = IN CORE   
    T_CUT_TNO (T0)             = 1.000e-09 
    T_CUT_DO_TRIPLES (T0)      = 1.000e-02 
    T_CUT_MKN_TRIPLES (T0)     = 1.000e-02 
    T_CUT_TRIPLES_WEAK (T0)    = 1.000e-07 
    T_CUT_TNO_PRE (T0)         = 1.000e-07 
    T_CUT_DO_TRIPLES_PRE (T0)  = 2.000e-02 
    T_CUT_MKN_TRIPLES_PRE (T0) = 1.000e-01 
    T_CUT_TNO_STRONG (T)       = 1.000e-08 
    T_CUT_TNO_WEAK (T)         = 1.000e-07 
    F_CUT_T (T)                = 1.000e-03 
    T_CUT_ITER (T)             = 1.000e-03 



   Starting Triplet Prescreening...
     T_CUT_TNO set to 1.000e-07 
     T_CUT_DO  set to 2.000e-02 
     T_CUT_MKN set to 1.000e-01 

  
    Number of (Unique) Local MO triplets: 16
    Max Number of Possible (Unique) LMO Triplets: 16 (Ratio: 1.0000)
    Natural Orbitals per Local MO triplet:
      Avg:  19 NOs 
      Min:  19 NOs 
      Max:  21 NOs 
  

   Continuing computation with surviving triplets...
     Eliminated all triples with energy less than 1.000e-07 Eh... 

    * Energy Contribution From Screened Triplets: 0.000000000000 

     T_CUT_TNO (re)set to 1.000e-09 
     T_CUT_DO  (re)set to 1.000e-02 
     T_CUT_MKN (re)set to 1.000e-02 

  
    Number of (Unique) Local MO triplets: 16
    Max Number of Possible (Unique) LMO Triplets: 16 (Ratio: 1.0000)
    Natural Orbitals per Local MO triplet:
      Avg:  23 NOs 
      Min:  22 NOs 
      Max:  25 NOs 
  
    DLPNO-CCSD(T0) Correlation Energy:  -0.214767029875 
    * DLPNO-CCSD Contribution:          -0.211791672911 
    * DLPNO-(T0) Contribution:          -0.002975356964 
    * Screened Triplets Contribution:    0.000000000000 



  ==> Computing Full Iterative (T) <==

  ==> Sorting Triplets <== 

    Number of Strong Triplets:     14, Total Triplets:     16, Ratio: 0.8750

     T_CUT_TNO (re)set to 1.000e-08 for strong triples 
     T_CUT_TNO (re)set to 1.000e-07 for weak triples   

  
    Number of (Unique) Local MO triplets: 16
    Max Number of Possible (Unique) LMO Triplets: 16 (Ratio: 1.0000)
    Natural Orbitals per Local MO triplet:
      Avg:  20 NOs 
      Min:  19 NOs 
      Max:  22 NOs 
  

  ==> DLPNO-(T) Memory Estimate <== 

    (q | i j) integrals    : 0.000 [GiB]
    (q | i a) integrals    : 0.000 [GiB]
    (q | a b) integrals    : 0.001 [GiB]
    W_{ijk}^{abc}          : 0.001 [GiB]
    V_{ijk}^{abc}          : 0.001 [GiB]
    T_{ijk}^{abc}          : 0.001 [GiB]
    Total Memory Given     : 0.488 [GiB]
    Total Memory Required  : 0.004 [GiB]

    Storing all X_{ijk}^{abc} quantities in RAM...


  ==> Local CCSD(T) <==

    E_CONVERGENCE = 1.00e-06
    R_CONVERGENCE = 1.00e-06

                         Corr. Energy    Delta E     Max R     Time (s)
  @LCCSD(T) iter   1:  -0.003070907556 -3.071e-03  2.462e-05        0
  @LCCSD(T) iter   2:  -0.003088057859 -1.715e-05  3.953e-06        0
  @LCCSD(T) iter   3:  -0.003088557708 -4.998e-07  7.944e-07        0

    DLPNO-CCSD(T0) energy at looser tolerance:  -0.002971206525
    DLPNO-CCSD(T)  energy at looser tolerance:  -0.003088557708
    * Net Iterative (T) contribution:           -0.000117351182

  
  Total DLPNO-CCSD(T) Correlation Energy:  -0.214887938035 
    DLPNO-CCSD Contribution:               -0.211795229889 
    DLPNO-(T) Contribution:                -0.003092708146 
    Screened Triplets Contribution:         0.000000000000 
    Andy Jiang... FOR THREEEEEEEEEEE!!!


  @Total DLPNO-CCSD(T) Energy: -76.241818397341 
   --------------------------------------------
                    DLPNO-CCSDT                
                   by Andy Jiang               
   --------------------------------------------

  DLPNO convergence set to TIGHT.

  Detailed DLPNO thresholds and cutoffs:
    T_CUT_TNO_STRONG           = 1.000e-08 
    T_CUT_TNO_WEAK             = 1.000e-07 
    T_CUT_DO_TRIPLES           = 1.000e-02 
    T_CUT_MKN_TRIPLES          = 1.000e-02 
    F_CUT_T                    = 1.000e-03 

 ==> DLPNO-CCSDT Memory Estimate <== 

    (i j | l_{ijk} a_{ijk})        : 0.001 [GiB]
    (i a_{ijk} | l_{ijk} b_{ijk})  : 0.010 [GiB]
    (i a_{ijk} | b_{ijk} c_{ijk})  : 0.051 [GiB]
    (Q_{ijk} | l_{ijk} [i,j,k])    : 0.002 [GiB]
    (Q_{ijk} | l_{ijk} a_{ijk})    : 0.034 [GiB]
    (Q_{ijk} | a_{ijk} b_{ijk})    : 0.059 [GiB]
    Total Memory Required          : 0.157 [GiB]


  ==> Local CCSDT <==

    E_CONVERGENCE = 1.00e-06
    R_CONVERGENCE = 1.00e-06

                       Corr. Energy    Delta E     Max R1     Max R2     Max R3     Time (s)
  @LCCSDT iter   1:  -0.214667548429 -2.147e-01  4.338e-04  2.773e-04  3.963e-06        0
  @LCCSDT iter   2:  -0.214743239682 -7.569e-05  1.223e-04  4.148e-05  1.117e-05        0
  @LCCSDT iter   3:  -0.214902426432 -1.592e-04  4.095e-05  2.848e-05  2.350e-06        0
  @LCCSDT iter   4:  -0.214921055182 -1.863e-05  2.643e-05  9.613e-06  1.561e-06        0
  @LCCSDT iter   5:  -0.214943502672 -2.245e-05  1.236e-05  6.748e-06  6.522e-07        0
  @LCCSDT iter   6:  -0.214947007169 -3.504e-06  7.875e-06  2.618e-06  4.359e-07        0
  @LCCSDT iter   7:  -0.214952054413 -5.047e-06  4.647e-06  2.021e-06  2.325e-07        0
  @LCCSDT iter   8:  -0.214952712240 -6.578e-07  2.907e-06  9.777e-07  1.719e-07        0
  @LCCSDT iter   9:  -0.214954193443 -1.481e-06  1.869e-06  7.832e-07  9.738e-08        0
  @LCCSDT iter  10:  -0.214954278154 -8.471e-08  1.182e-06  4.385e-07  7.698e-08        0
  @LCCSDT iter  11:  -0.214954793016 -5.149e-07  7.733e-07  3.547e-07  4.555e-08        0
  
  Total DLPNO-CCSDT Correlation Energy:  -0.214962500433 
    LCCSDT Correlation Energy:           -0.214954793016 
    Full (T) - Iterative (T) Diff:       -0.000004150439 
    Net non-strong pair contributions:   -0.000003556978 
    Andy Jiang... FOR THREEEEEEEEEEE!!!


  @Total DLPNO-CCSDT Energy: -76.241892959739 

    Psi4 stopped on: Monday, 26 August 2024 03:59PM
    Psi4 wall time for execution: 0:00:00.83


    -----------------------------------------------------------------------
          Psi4: An Open-Source Ab Initio Electronic Structure Package
                               Psi4 1.10a1.dev47 

                         Git: Rev {dlpno_ccsd_t_1_9} 6cef7c8 dirty


    D. G. A. Smith, L. A. Burns, A. C. Simmonett, R. M. Parrish,
    M. C. Schieber, R. Galvelis, P. Kraus, H. Kruse, R. Di Remigio,
    A. Alenaizan, A. M. James, S. Lehtola, J. P. Misiewicz, M. Scheurer,
    R. A. Shaw, J. B. Schriber, Y. Xie, Z. L. Glick, D. A. Sirianni,
    J. S. O'Brien, J. M. Waldrop, A. Kumar, E. G. Hohenstein,
    B. P. Pritchard, B. R. Brooks, H. F. Schaefer III, A. Yu. Sokolov,
    K. Patkowski, A. E. DePrince III, U. Bozkaya, R. A. King,
    F. A. Evangelista, J. M. Turney, T. D. Crawford, C. D. Sherrill,
    J. Chem. Phys. 152(18) 184108 (2020). https://doi.org/10.1063/5.0006002

                            Additional Code Authors
    E. T. Seidl, C. L. Janssen, E. F. Valeev, M. L. Leininger,
    J. F. Gonthier, R. M. Richard, H. R. McAlexander, M. Saitow, X. Wang,
    P. Verma, M. H. Lechner, A. Jiang, S. Behnle, A. G. Heide,
    M. F. Herbst, and D. L. Poole

             Previous Authors, Complete List of Code Contributors,
                       and Citations for Specific Modules
    https://github.com/psi4/psi4/blob/master/codemeta.json
    https://github.com/psi4/psi4/graphs/contributors
    http://psicode.org/psi4manual/master/introduction.html#citing-psifour

    -----------------------------------------------------------------------


    Psi4 started on: Monday, 26 August 2024 03:59PM

    Process ID: 1371694
    Host:       b6-9
    PSIDATADIR: /home/aj48384/github/psi4/objdir_p4sums/stage/share/psi4
    Memory:     500.0 MiB
    Threads:    32
    
  ==> Input QCSchema <==

--------------------------------------------------------------------------
{'driver': 'energy',
 'extras': {'psiapi': True, 'wfn_qcvars_only': True},
 'id': None,
 'keywords': {'CC_TYPE': 'CONV',
              'DF_BASIS_MP2': 'CC-PVDZ-RI',
              'E_CONVERGENCE': 1e-06,
              'FREEZE_CORE': 'TRUE',
              'MP2_TYPE': 'DF',
              'PNO_CONVERGENCE': 'TIGHT',
              'R_CONVERGENCE': 1e-06,
              'SCF_TYPE': 'DF',
              'function_kwargs': {}},
 'model': {'basis': 'cc-pvdz', 'method': 'dlpno_ccsdt_q'},
 'molecule': {'atom_labels': ['', '', '', '', '', ''],
              'atomic_numbers': [8, 1, 1, 8, 1, 1],
              'extras': {},
              'fix_com': True,
              'fix_orientation': True,
              'fix_symmetry': 'c1',
              'fragment_charges': [0.0, 0.0],
              'fragment_multiplicities': [1, 1],
              'fragments': [[0, 1, 2], [3, 4, 5]],
              'geometry': [-2.8065519757000907, -0.21679800591221124, 1.1865220829071016e-18, -3.5307932927340544,
                           1.4405352698151894, 1.1865220829071016e-18, -1.0087988207682952, 0.07654795999485833,
                           1.1865220829071016e-18, 2.676737821164358, 0.21025931145387788, 1.1865220829071016e-18,
                           3.2999184747349624, -0.7066547018795148, -1.4334725394534156, 3.2999184747349624,
                           -0.7066547018795148, 1.4334725394534156],
              'mass_numbers': [16, 1, 1, 16, 1, 1],
              'masses': [15.99491461957, 1.00782503223, 1.00782503223, 15.99491461957, 1.00782503223, 1.00782503223],
              'molecular_charge': 0.0,
              'molecular_multiplicity': 1,
              'name': 'mol',
              'provenance': {'creator': 'QCElemental',
                             'routine': 'qcelemental.molparse.from_string',
                             'version': '0.28.0'},
              'real': [True, True, True, True, True, True],
              'schema_name': 'qcschema_molecule',
              'schema_version': 2,
              'symbols': ['O', 'H', 'H', 'O', 'H', 'H'],
              'validated': True},
 'protocols': {'stdout': True},
 'provenance': {'creator': 'QCElemental', 'routine': 'qcelemental.models.results', 'version': '0.28.0'},
 'schema_name': 'qcschema_input',
 'schema_version': 1}
--------------------------------------------------------------------------

Scratch directory: /tmp/
   => Libint2 <=

    Primary   basis highest AM E, G, H:  6, 6, 3
    Auxiliary basis highest AM E, G, H:  7, 7, 4
    Onebody   basis highest AM E, G, H:  -, -, -
    Solid Harmonics ordering:            Gaussian

*** tstart() called on b6-9
*** at Mon Aug 26 15:59:51 2024

   => Loading Basis Set <=

    Name: CC-PVDZ
    Role: ORBITAL
    Keyword: BASIS
    atoms 1, 4     entry O          line   198 file /home/aj48384/github/psi4/objdir_p4sums/stage/share/psi4/basis/cc-pvdz.gbs 
    atoms 2-3, 5-6 entry H          line    22 file /home/aj48384/github/psi4/objdir_p4sums/stage/share/psi4/basis/cc-pvdz.gbs 


         ---------------------------------------------------------
                                   SCF
               by Justin Turney, Rob Parrish, Andy Simmonett
                          and Daniel G. A. Smith
                              RHF Reference
                       32 Threads,    500 MiB Core
         ---------------------------------------------------------

  ==> Geometry <==

    Molecular point group: c1
    Full point group: Cs

    Geometry (in Bohr), charge = 0, multiplicity = 1:

       Center              X                  Y                   Z               Mass       
    ------------   -----------------  -----------------  -----------------  -----------------
         O           -2.806551975700    -0.216798005912     0.000000000000    15.994914619570
         H           -3.530793292734     1.440535269815     0.000000000000     1.007825032230
         H           -1.008798820768     0.076547959995     0.000000000000     1.007825032230
         O            2.676737821164     0.210259311454     0.000000000000    15.994914619570
         H            3.299918474735    -0.706654701880    -1.433472539453     1.007825032230
         H            3.299918474735    -0.706654701880     1.433472539453     1.007825032230

  Running in c1 symmetry.

  Rotational constants: A =      7.15151  B =      0.21457  C =      0.21447 [cm^-1]
  Rotational constants: A = 214396.91837  B =   6432.69061  C =   6429.61818 [MHz]
  Nuclear repulsion =   36.662847996863405

  Charge       = 0
  Multiplicity = 1
  Electrons    = 20
  Nalpha       = 10
  Nbeta        = 10

  ==> Algorithm <==

  SCF Algorithm Type is DF.
  DIIS enabled.
  MOM disabled.
  Fractional occupation disabled.
  Guess Type is SAD.
  Energy threshold   = 1.00e-06
  Density threshold  = 1.00e-08
  Integral threshold = 1.00e-12

  ==> Primary Basis <==

  Basis Set: CC-PVDZ
    Blend: CC-PVDZ
    Number of shells: 24
    Number of basis functions: 48
    Number of Cartesian functions: 50
    Spherical Harmonics?: true
    Max angular momentum: 2

   => Loading Basis Set <=

    Name: (CC-PVDZ AUX)
    Role: JKFIT
    Keyword: DF_BASIS_SCF
    atoms 1, 4     entry O          line   221 file /home/aj48384/github/psi4/objdir_p4sums/stage/share/psi4/basis/cc-pvdz-jkfit.gbs 
    atoms 2-3, 5-6 entry H          line    51 file /home/aj48384/github/psi4/objdir_p4sums/stage/share/psi4/basis/cc-pvdz-jkfit.gbs 

  ==> Integral Setup <==

  DFHelper Memory: AOs need 0.005 GiB; user supplied 0.366 GiB. 
  SCF_SUBTYPE=INCORE selected. In-core MEM_DF algorithm will be used.
  Using in-core AOs.

  ==> MemDFJK: Density-Fitted J/K Matrices <==

    J tasked:                   Yes
    K tasked:                   Yes
    wK tasked:                   No
    OpenMP threads:              32
    Memory [MiB]:               375
    Algorithm:                 Core
    Schwarz Cutoff:           1E-12
    Mask sparsity (%):       0.0000
    Fitting Condition:        1E-10

   => Auxiliary Basis Set <=

  Basis Set: (CC-PVDZ AUX)
    Blend: CC-PVDZ-JKFIT
    Number of shells: 84
    Number of basis functions: 232
    Number of Cartesian functions: 262
    Spherical Harmonics?: true
    Max angular momentum: 3

  Minimum eigenvalue in the overlap matrix is 3.0512226358E-02.
  Reciprocal condition number of the overlap matrix is 7.7055058080E-03.
    Using symmetric orthogonalization.

  ==> Pre-Iterations <==

  SCF Guess: Superposition of Atomic Densities via on-the-fly atomic UHF (no occupation information).

   -------------------------
    Irrep   Nso     Nmo    
   -------------------------
     A         48      48 
   -------------------------
    Total      48      48
   -------------------------

  ==> Iterations <==

                           Total Energy        Delta E     RMS |[F,P]|

   @DF-RHF iter SAD:  -151.07604519126693   -1.51076e+02   0.00000e+00 
   @DF-RHF iter   1:  -151.92958063604689   -8.53535e-01   1.17860e-02 DIIS/ADIIS
   @DF-RHF iter   2:  -152.02820245283502   -9.86218e-02   6.57601e-03 DIIS/ADIIS
   @DF-RHF iter   3:  -152.06160939080499   -3.34069e-02   6.94255e-04 DIIS/ADIIS
   @DF-RHF iter   4:  -152.06244894594050   -8.39555e-04   1.44054e-04 DIIS/ADIIS
   @DF-RHF iter   5:  -152.06248766123849   -3.87153e-05   3.71052e-05 DIIS
   @DF-RHF iter   6:  -152.06249029095244   -2.62971e-06   1.56336e-05 DIIS
   @DF-RHF iter   7:  -152.06249062981891   -3.38866e-07   2.54788e-06 DIIS
   @DF-RHF iter   8:  -152.06249064646278   -1.66439e-08   3.64773e-07 DIIS
   @DF-RHF iter   9:  -152.06249064686114   -3.98359e-10   8.28724e-08 DIIS
   @DF-RHF iter  10:  -152.06249064688237   -2.12310e-11   1.66760e-08 DIIS
   @DF-RHF iter  11:  -152.06249064688328   -9.09495e-13   2.74739e-09 DIIS
  Energy and wave function converged.


  ==> Post-Iterations <==

    Orbital Energies [Eh]
    ---------------------

    Doubly Occupied:                                                      

       1A    -20.584139     2A    -20.516106     3A     -1.369043  
       4A     -1.303696     5A     -0.729721     6A     -0.674428  
       7A     -0.600391     8A     -0.543215     9A     -0.514810  
      10A     -0.462398  

    Virtual:                                                              

      11A      0.163880    12A      0.231478    13A      0.240274  
      14A      0.380379    15A      0.759570    16A      0.808237  
      17A      0.844258    18A      0.866754    19A      1.126040  
      20A      1.200885    21A      1.206268    22A      1.237371  
      23A      1.271465    24A      1.318268    25A      1.448839  
      26A      1.449812    27A      1.494718    28A      1.519298  
      29A      1.694477    30A      1.706568    31A      1.807437  
      32A      1.923601    33A      1.971539    34A      2.044494  
      35A      2.422487    36A      2.451766    37A      2.501631  
      38A      2.728456    39A      3.251702    40A      3.297626  
      41A      3.321446    42A      3.370288    43A      3.485877  
      44A      3.544104    45A      3.843716    46A      3.904984  
      47A      4.123529    48A      4.192637  

    Final Occupation by Irrep:
              A 
    DOCC [    10 ]
    NA   [    10 ]
    NB   [    10 ]

  @DF-RHF Final Energy:  -152.06249064688328

   => Energetics <=

    Nuclear Repulsion Energy =             36.6628479968634053
    One-Electron Energy =                -282.8547860837082339
    Two-Electron Energy =                  94.1294474399615524
    Total Energy =                       -152.0624906468832762

Computation Completed


Properties will be evaluated at   0.000000,   0.000000,   0.000000 [a0]

Properties computed using the SCF density matrix


 Multipole Moments:

 ------------------------------------------------------------------------------------
     Multipole            Electronic (a.u.)      Nuclear  (a.u.)        Total (a.u.)
 ------------------------------------------------------------------------------------

 L = 1.  Multiply by 2.5417464519 to convert [e a0] to [Debye]
 Dipole X            :          0.0532186            1.0217316            1.0749502
 Dipole Y            :         -0.0216731            0.0514643            0.0297912
 Dipole Z            :          0.0000000            0.0000000            0.0000000
 Magnitude           :                                                    1.0753630

 ------------------------------------------------------------------------------------

*** tstop() called on b6-9 at Mon Aug 26 15:59:51 2024
Module time:
	user time   =       7.96 seconds =       0.13 minutes
	system time =       0.22 seconds =       0.00 minutes
	total time  =          0 seconds =       0.00 minutes
Total time:
	user time   =      66.21 seconds =       1.10 minutes
	system time =       2.31 seconds =       0.04 minutes
	total time  =          2 seconds =       0.03 minutes
 MINTS: Wrapper to libmints.
   by Justin Turney

   Calculation information:
      Number of threads:                32
      Number of atoms:                   6
      Number of AO shells:              24
      Number of SO shells:              24
      Number of primitives:             64
      Number of atomic orbitals:        50
      Number of basis functions:        48

      Number of irreps:                  1
      Integral cutoff                 1.00e-12
      Number of functions per irrep: [  48 ]

 OEINTS: Overlap, kinetic, potential, dipole, and quadrupole integrals
         stored in file 35.

      Computing two-electron integrals...done
      Computed 521329 non-zero two-electron integrals.
        Stored in file 33.

   => Loading Basis Set <=

    Name: CC-PVDZ-RI
    Role: RIFIT
    Keyword: DF_BASIS_MP2
    atoms 1, 4     entry O          line   235 file /home/aj48384/github/psi4/objdir_p4sums/stage/share/psi4/basis/cc-pvdz-ri.gbs 
    atoms 2-3, 5-6 entry H          line    19 file /home/aj48384/github/psi4/objdir_p4sums/stage/share/psi4/basis/cc-pvdz-ri.gbs 


Reading options from the DLPNO_CCSDT_Q block
Calling plugin dlpno_ccsdt_q.so.


Plugins that use gradients: set Da, Db, and Lagrangian for gradient theory on the wavefunction. The old way of passing these will stop working as soon as 1.8.   --------------------------------------------
                    DLPNO-CCSD                 
                   by Andy Jiang               
   --------------------------------------------

  DLPNO convergence set to TIGHT.

  Detailed DLPNO thresholds and cutoffs:
    T_CUT_PNO        = 1.0000e-07 
    DIAG_SCALE       = 1.0000e-03 
    T_CUT_TRACE      = 9.9900e-01 
    T_CUT_ENERGY     = 9.9700e-01 
    T_CUT_PAIRS      = 1.0000e-05 
    T_CUT_PRE        = 1.0000e-07 
    T_CUT_DO_PRE     = 3.0000e-02 
    T_CUT_MKN        = 1.0000e-03 
    T_CUT_PNO_MP2    = 1.0000e-09 
    T_CUT_TRACE_MP2  = 9.9990e-01 
    T_CUT_ENERGY_MP2 = 9.9900e-01 
    T_CUT_DO         = 5.0000e-03 
    T_CUT_DO_ij      = 1.0000e-05 
    T_CUT_DO_uv      = 1.0000e-05 
    T_CUT_CLMO       = 1.0000e-03 
    T_CUT_CPAO       = 1.0000e-03 
    S_CUT            = 1.0000e-08 
    F_CUT            = 1.0000e-05 
    INTS_TOL (AO)    = 1.0000e-10 


  ==> Basis Set Information <==

   ----------------------------------------------
      NBF   NFRZC   NACT   NDOCC   NVIR   NAUX   
   ----------------------------------------------
       48      2      8      10      38    168
   ----------------------------------------------

  ==> Boys Localizer <==

    Convergence =   1.000E-12
    Maxiter     =        1000

    Iteration                   Metric       Residual
    @Boys    0   4.1873162028119538E+01              -
    @Boys    1   6.4214476136498945E+01   5.335473E-01
    @Boys    2   6.5406211839141648E+01   1.855868E-02
    @Boys    3   6.5521620466284318E+01   1.764490E-03
    @Boys    4   6.5536074405798274E+01   2.205980E-04
    @Boys    5   6.5538706233500903E+01   4.015846E-05
    @Boys    6   6.5539103050506583E+01   6.054697E-06
    @Boys    7   6.5539144175771810E+01   6.274920E-07
    @Boys    8   6.5539150760234634E+01   1.004661E-07
    @Boys    9   6.5539151669277103E+01   1.387022E-08
    @Boys   10   6.5539151771616346E+01   1.561498E-09
    @Boys   11   6.5539151782021605E+01   1.587640E-10
    @Boys   12   6.5539151784049281E+01   3.093839E-11
    @Boys   13   6.5539151784202673E+01   2.340463E-12
    @Boys   14   6.5539151784226533E+01   3.640576E-13

    Boys Localizer converged.

  Starting Crude Prescreening...
    T_CUT_MKN set to 1.000e-01
    T_CUT_DO  set to 1.000e-02

  ==> Forming Local MO Domains <==

    Auxiliary BFs per Local MO:
      Average =   63 AUX BFs (1 atoms)
      Min     =   56 AUX BFs (1 atoms)
      Max     =   70 AUX BFs (2 atoms)
  
    Projected AOs per Local MO:
      Average =   46 PAOs (5 atoms)
      Min     =   43 PAOs (5 atoms)
      Max     =   48 PAOs (6 atoms)

    Local MOs per Local MO:
      Average =    8 LMOs
      Min     =    8 LMOs
      Max     =    8 LMOs
 
    Screened 0 of 64 LMO pairs (0.00 %)
             0 pairs met overlap criteria
             8 pairs met energy criteria
 
    Screened LMO pair energy =  0.000000000000 

  ==> Merging LMO Domains into LMO Pair Domains <==
  
    Auxiliary BFs per Local MO pair:
      Average =   97 AUX BFs (2 atoms)
      Min     =   56 AUX BFs (1 atoms)
      Max     =  140 AUX BFs (4 atoms)
  
    Local MOs per Local MO pair:
      Average =    8 LMOs
      Min     =    8 LMOs
      Max     =    8 LMOs
  
    Projected AOs per Local MO pair:
      Average =   47 PAOs (5 atoms)
      Min     =   43 PAOs (5 atoms)
      Max     =   48 PAOs (6 atoms)

  ==> Transforming 3-Index Integrals to LMO/PAO basis <==

  ==> Determining Strong and Weak Pairs (Crude Prescreening Step) <==

  ==> Computing SC-LMP2 Pair Energies <==

    Starting semicanonical (non-iterative) LMP2 step...

    PAO-SC-LMP2 Energy:  -0.392753526553

    Eliminated Pairs                = 0
    (Initial) Weak Pairs            = 0
    (Initial) Strong Pairs          = 64
    Surviving Pairs / Total Pairs   = (100.00 %)
    Eliminated Pair dE              = 0.000000000000

  Starting Refined Prescreening...
    T_CUT_MKN reset to 1.000e-03
    T_CUT_DO  reset to 5.000e-03

  ==> Forming Local MO Domains <==

    Auxiliary BFs per Local MO:
      Average =   98 AUX BFs (3 atoms)
      Min     =   84 AUX BFs (3 atoms)
      Max     =  140 AUX BFs (4 atoms)
  
    Projected AOs per Local MO:
      Average =   48 PAOs (6 atoms)
      Min     =   48 PAOs (6 atoms)
      Max     =   48 PAOs (6 atoms)

    Local MOs per Local MO:
      Average =    8 LMOs
      Min     =    8 LMOs
      Max     =    8 LMOs
 

  ==> Merging LMO Domains into LMO Pair Domains <==
  
    Auxiliary BFs per Local MO pair:
      Average =  138 AUX BFs (4 atoms)
      Min     =   84 AUX BFs (3 atoms)
      Max     =  168 AUX BFs (6 atoms)
  
    Local MOs per Local MO pair:
      Average =    8 LMOs
      Min     =    8 LMOs
      Max     =    8 LMOs
  
    Projected AOs per Local MO pair:
      Average =   48 PAOs (6 atoms)
      Min     =   48 PAOs (6 atoms)
      Max     =   48 PAOs (6 atoms)

  ==> Transforming 3-Index Integrals to LMO/PAO basis <==

  ==> Determining Strong and Weak Pairs (Refined Prescreening Step) <==


  ==> Computing SC-LMP2 Pair Energies <==

    Starting semicanonical (non-iterative) LMP2 step...


  ==> Forming Pair Natural Orbitals (for LMP2) <==
    PAO-SC-LMP2 Energy:  -0.392867047040

  
    Natural Orbitals per Local MO pair:
      Avg:  28 NOs 
      Min:  21 NOs 
      Max:  37 NOs 
      Avg Occ Number Tol: 1.257e-09 
      Min Occ Number Tol: 1.027e-12 
      Max Occ Number Tol: 5.284e-09 
      Avg Trace Sum: 0.999969 
      Min Trace Sum: 0.999906 
      Max Trace Sum: 1.000000 
  
    PNO truncation energy = -0.000000304879
    (Additional) Eliminated Pairs   = 0
    (Final) Weak Pairs              = 0
    (Final) Strong Pairs            = 64
    Strong Pairs / Total Pairs      = (100.00 %)
    (Cumulative) Eliminated Pair dE = 0.000000000000
    Weak Pair dE                    = 0.000000000000


    Auxiliary BFs per Local MO:
      Average =   98 AUX BFs (3 atoms)
      Min     =   84 AUX BFs (3 atoms)
      Max     =  140 AUX BFs (4 atoms)
  
    Projected AOs per Local MO:
      Average =   48 PAOs (6 atoms)
      Min     =   48 PAOs (6 atoms)
      Max     =   48 PAOs (6 atoms)

    Local MOs per Local MO:
      Average =    8 LMOs
      Min     =    8 LMOs
      Max     =    8 LMOs
 

  ==> Merging LMO Domains into LMO Pair Domains <==
  
    Auxiliary BFs per Local MO pair:
      Average =  138 AUX BFs (4 atoms)
      Min     =   84 AUX BFs (3 atoms)
      Max     =  168 AUX BFs (6 atoms)
  
    Local MOs per Local MO pair:
      Average =    8 LMOs
      Min     =    8 LMOs
      Max     =    8 LMOs
  
    Projected AOs per Local MO pair:
      Average =   48 PAOs (6 atoms)
      Min     =   48 PAOs (6 atoms)
      Max     =   48 PAOs (6 atoms)
  ==> PNO-LMP2 Memory Estimate <== 

    PNO/PNO overlaps       : 0.003 [GiB]
    Total Memory Given     : 0.488 [GiB]


  ==> Iterative Local MP2 with Pair Natural Orbitals (PNOs) <==

    E_CONVERGENCE = 1.00e-08
    R_CONVERGENCE = 1.00e-08

                         Corr. Energy    Delta E     Max R     Time (s)
  @PNO-LMP2 iter   0:  -0.401681134627 -4.017e-01  1.072e-03        0
  @PNO-LMP2 iter   1:  -0.405769248002 -4.088e-03  2.870e-04        0
  @PNO-LMP2 iter   2:  -0.406047492249 -2.782e-04  5.606e-05        0
  @PNO-LMP2 iter   3:  -0.406082730035 -3.524e-05  1.041e-05        0
  @PNO-LMP2 iter   4:  -0.406084853200 -2.123e-06  1.393e-06        0
  @PNO-LMP2 iter   5:  -0.406085261629 -4.084e-07  2.685e-07        0
  @PNO-LMP2 iter   6:  -0.406085245226  1.640e-08  4.170e-08        0
  @PNO-LMP2 iter   7:  -0.406085208433  3.679e-08  8.037e-09        0
  @PNO-LMP2 iter   8:  -0.406085204014  4.419e-09  1.350e-09        0

  ==> Forming Pair Natural Orbitals (for LCCSD) <==
  
    Natural Orbitals per Local MO pair:
      Avg:  21 NOs 
      Min:  18 NOs 
      Max:  30 NOs 
      Avg Occ Number Tol: 7.298e-08 
      Min Occ Number Tol: 1.344e-10 
      Max Occ Number Tol: 3.167e-07 
      Avg Trace Sum: 0.999568 
      Min Trace Sum: 0.999031 
      Max Trace Sum: 1.000000 
  
    Weak pair energy      = 0.000000000000
    PNO truncation energy = -0.000013713218

    Coefficient sparsity in AO -> LMO transform:   0.00 % 
    Coefficient sparsity in AO -> PAO transform:   0.00 % 
    Coefficient sparsity in combined transforms:   0.00 % 

    Storing transformed LMO/LMO, LMO/PAO, and PAO/PAO integrals in sparse format.
    Required memory: 0.003 GiB (0.00 % reduction from dense format) 

  ==> Transforming 3-Index Integrals to LMO/LMO basis <==

  ==> Transforming 3-Index Integrals to PAO/PAO basis <==
    PAO/PAO Integral Memory After Screening: 0.001 [GiB]

  ==> DLPNO-CCSD Memory Estimate <== 

    (q | i j) integrals        : 0.000 [GiB]
    (q | i a) integrals        : 0.000 [GiB]
    (q | a b) integrals        : 0.001 [GiB]
    (m i | n j)                : 0.000 [GiB]
    (i j | k c_{ij})           : 0.000 [GiB]
    (i a_{ij} | j b_{ij})      : 0.001 [GiB]
    (i k | a_{ij} b_{kj})      : 0.004 [GiB]
    (i a_{ij} | b_{ij} c_{ij}) : 0.005 [GiB]
    (Q_{ij}|m_{ij} a_{ij})     : 0.006 [GiB]
    (Q_{ij}|a_{ij} b_{ij})     : 0.018 [GiB]
    PNO/PNO overlaps           : 0.005 [GiB]

    Total Memory Given         : 0.488 [GiB]
    Total Memory Required      : 0.042 [GiB]

    Using high memory PNO overlap algorithm... 

    Storing (Q_{ij}|m_{ij} a_{ij}) integrals in RAM... 

    Storing (Q_{ij}|a_{ij} b_{ij}) integrals in RAM... 

    Computing CC integrals...


  ==> Local CCSD (T1-transformed Hamiltonian) <==

    E_CONVERGENCE = 1.00e-06
    R_CONVERGENCE = 1.00e-06

                      Corr. Energy    Delta E     Max R1     Max R2     Time (s)
  @LCCSD iter   0:  -0.416257286243 -4.163e-01  4.300e-03  2.060e-03        0
  @LCCSD iter   1:  -0.423115154721 -6.858e-03  8.626e-04  7.289e-04        0
  @LCCSD iter   2:  -0.424182607565 -1.067e-03  3.332e-04  2.132e-04        0
  @LCCSD iter   3:  -0.424592633199 -4.100e-04  1.658e-04  6.878e-05        0
  @LCCSD iter   4:  -0.424660769132 -6.814e-05  4.537e-05  1.597e-05        1
  @LCCSD iter   5:  -0.424662332921 -1.564e-06  2.436e-05  4.871e-06        0
  @LCCSD iter   6:  -0.424663131574 -7.987e-07  8.120e-06  2.487e-06        0
  @LCCSD iter   7:  -0.424664820424 -1.689e-06  4.973e-06  8.463e-07        0
  @LCCSD iter   8:  -0.424665496867 -6.764e-07  1.675e-06  3.495e-07        0
  @LCCSD iter   9:  -0.424665933833 -4.370e-07  8.197e-07  1.137e-07        0

  T1 Diagnostic: 0.00662291 
  
  Total DLPNO-CCSD Correlation Energy:  -0.424679647051 
    CCSD Correlation Energy:            -0.424665933833 
    Eliminated Pair MP2 Correction       0.000000000000 
    Weak Pair MP2 Correction:            0.000000000000 
    Weak Pair Dispersion Correction:     0.000000000000 
    Dipole Pair Correction:              0.000000000000 
    PNO Truncation Correction:          -0.000013713218 


  @Total DLPNO-CCSD Energy: -152.487170293934 
   --------------------------------------------
                    DLPNO-CCSD(T)              
                    by Andy Jiang              
   --------------------------------------------

  DLPNO convergence set to TIGHT.

  Detailed DLPNO thresholds and cutoffs:
    ALGORITHM    = ITERATIVE (T)   
    STORAGE      = IN CORE   
    T_CUT_TNO (T0)             = 1.000e-09 
    T_CUT_DO_TRIPLES (T0)      = 1.000e-02 
    T_CUT_MKN_TRIPLES (T0)     = 1.000e-02 
    T_CUT_TRIPLES_WEAK (T0)    = 1.000e-07 
    T_CUT_TNO_PRE (T0)         = 1.000e-07 
    T_CUT_DO_TRIPLES_PRE (T0)  = 2.000e-02 
    T_CUT_MKN_TRIPLES_PRE (T0) = 1.000e-01 
    T_CUT_TNO_STRONG (T)       = 1.000e-08 
    T_CUT_TNO_WEAK (T)         = 1.000e-07 
    F_CUT_T (T)                = 1.000e-03 
    T_CUT_ITER (T)             = 1.000e-03 



   Starting Triplet Prescreening...
     T_CUT_TNO set to 1.000e-07 
     T_CUT_DO  set to 2.000e-02 
     T_CUT_MKN set to 1.000e-01 

  
    Number of (Unique) Local MO triplets: 112
    Max Number of Possible (Unique) LMO Triplets: 112 (Ratio: 1.0000)
    Natural Orbitals per Local MO triplet:
      Avg:  22 NOs 
      Min:  18 NOs 
      Max:  28 NOs 
  

   Continuing computation with surviving triplets...
     Eliminated all triples with energy less than 1.000e-07 Eh... 

    * Energy Contribution From Screened Triplets: 0.000000000000 

     T_CUT_TNO (re)set to 1.000e-09 
     T_CUT_DO  (re)set to 1.000e-02 
     T_CUT_MKN (re)set to 1.000e-02 

  
    Number of (Unique) Local MO triplets: 112
    Max Number of Possible (Unique) LMO Triplets: 112 (Ratio: 1.0000)
    Natural Orbitals per Local MO triplet:
      Avg:  30 NOs 
      Min:  22 NOs 
      Max:  38 NOs 
  
    DLPNO-CCSD(T0) Correlation Energy:  -0.430857224669 
    * DLPNO-CCSD Contribution:          -0.424665933833 
    * DLPNO-(T0) Contribution:          -0.006191290837 
    * Screened Triplets Contribution:    0.000000000000 



  ==> Computing Full Iterative (T) <==

  ==> Sorting Triplets <== 

    Number of Strong Triplets:     29, Total Triplets:    112, Ratio: 0.2589

     T_CUT_TNO (re)set to 1.000e-08 for strong triples 
     T_CUT_TNO (re)set to 1.000e-07 for weak triples   

  
    Number of (Unique) Local MO triplets: 112
    Max Number of Possible (Unique) LMO Triplets: 112 (Ratio: 1.0000)
    Natural Orbitals per Local MO triplet:
      Avg:  22 NOs 
      Min:  18 NOs 
      Max:  28 NOs 
  

  ==> DLPNO-(T) Memory Estimate <== 

    (q | i j) integrals    : 0.000 [GiB]
    (q | i a) integrals    : 0.000 [GiB]
    (q | a b) integrals    : 0.001 [GiB]
    W_{ijk}^{abc}          : 0.010 [GiB]
    V_{ijk}^{abc}          : 0.010 [GiB]
    T_{ijk}^{abc}          : 0.010 [GiB]
    Total Memory Given     : 0.488 [GiB]
    Total Memory Required  : 0.033 [GiB]

    Storing all X_{ijk}^{abc} quantities in RAM...


  ==> Local CCSD(T) <==

    E_CONVERGENCE = 1.00e-06
    R_CONVERGENCE = 1.00e-06

                         Corr. Energy    Delta E     Max R     Time (s)
  @LCCSD(T) iter   1:  -0.006392118570 -6.392e-03  2.346e-05        0
  @LCCSD(T) iter   2:  -0.006422653769 -3.054e-05  3.625e-06        0
  @LCCSD(T) iter   3:  -0.006423755586 -1.102e-06  7.358e-07        0
  @LCCSD(T) iter   4:  -0.006423757739 -2.153e-09  2.102e-08        0

    DLPNO-CCSD(T0) energy at looser tolerance:  -0.006173448863
    DLPNO-CCSD(T)  energy at looser tolerance:  -0.006423757739
    * Net Iterative (T) contribution:           -0.000250308876

  
  Total DLPNO-CCSD(T) Correlation Energy:  -0.431121246764 
    DLPNO-CCSD Contribution:               -0.424679647051 
    DLPNO-(T) Contribution:                -0.006441599713 
    Screened Triplets Contribution:         0.000000000000 
    Andy Jiang... FOR THREEEEEEEEEEE!!!


  @Total DLPNO-CCSD(T) Energy: -152.493611893648 
   --------------------------------------------
                    DLPNO-CCSDT                
                   by Andy Jiang               
   --------------------------------------------

  DLPNO convergence set to TIGHT.

  Detailed DLPNO thresholds and cutoffs:
    T_CUT_TNO_STRONG           = 1.000e-08 
    T_CUT_TNO_WEAK             = 1.000e-07 
    T_CUT_DO_TRIPLES           = 1.000e-02 
    T_CUT_MKN_TRIPLES          = 1.000e-02 
    F_CUT_T                    = 1.000e-03 

 ==> DLPNO-CCSDT Memory Estimate <== 

    (i j | l_{ijk} a_{ijk})        : 0.102 [GiB]
    (i a_{ijk} | l_{ijk} b_{ijk})  : 1.181 [GiB]
    (i a_{ijk} | b_{ijk} c_{ijk})  : 3.455 [GiB]
    (Q_{ijk} | l_{ijk} [i,j,k])    : 0.255 [GiB]
    (Q_{ijk} | l_{ijk} a_{ijk})    : 5.865 [GiB]
    (Q_{ijk} | a_{ijk} b_{ijk})    : 5.706 [GiB]
    Total Memory Required          : 16.563 [GiB]


  ==> Local CCSDT <==

    E_CONVERGENCE = 1.00e-06
    R_CONVERGENCE = 1.00e-06

                       Corr. Energy    Delta E     Max R1     Max R2     Max R3     Time (s)
  @LCCSDT iter   1:  -0.430676662033 -4.307e-01  4.324e-04  2.787e-04  4.422e-06        0
  @LCCSDT iter   2:  -0.430802536525 -1.259e-04  1.535e-04  4.144e-05  1.104e-05        0
  @LCCSDT iter   3:  -0.431162117575 -3.596e-04  5.724e-05  2.865e-05  2.463e-06        0
  @LCCSDT iter   4:  -0.431191909866 -2.979e-05  3.712e-05  9.598e-06  1.802e-06        0
  @LCCSDT iter   5:  -0.431246591810 -5.468e-05  2.192e-05  7.528e-06  7.650e-07        0
  @LCCSDT iter   6:  -0.431250489467 -3.898e-06  1.268e-05  3.911e-06  5.721e-07        0
  @LCCSDT iter   7:  -0.431263685424 -1.320e-05  8.781e-06  2.663e-06  3.129e-07        0
  @LCCSDT iter   8:  -0.431263556057  1.294e-07  5.074e-06  1.754e-06  2.378e-07        0
  @LCCSDT iter   9:  -0.431267695690 -4.140e-06  3.607e-06  1.171e-06  1.557e-07        0
  @LCCSDT iter  10:  -0.431267176883  5.188e-07  2.137e-06  8.429e-07  1.137e-07        0
  @LCCSDT iter  11:  -0.431268708162 -1.531e-06  1.531e-06  6.138e-07  8.435e-08        0
  @LCCSDT iter  12:  -0.431268329741  3.784e-07  9.359e-07  4.270e-07  6.279e-08        0
  
  Total DLPNO-CCSDT Correlation Energy:  -0.431299884933 
    LCCSDT Correlation Energy:           -0.431268329741 
    Full (T) - Iterative (T) Diff:       -0.000017841974 
    Net non-strong pair contributions:   -0.000013713218 
    Andy Jiang... FOR THREEEEEEEEEEE!!!


  @Total DLPNO-CCSDT Energy: -152.493790531817 

    Psi4 stopped on: Monday, 26 August 2024 03:59PM
    Psi4 wall time for execution: 0:00:01.71


  //>>>>>>>>>>>>>>>>>>>>>>>>>>>>>>>>>>>//
  //          ManyBody Results         //
  //<<<<<<<<<<<<<<<<<<<<<<<<<<<<<<<<<<<//


   ==> N-Body: Counterpoise Corrected (CP) energies <==

        n-Body     Total Energy            Interaction Energy                          N-body Contribution to Interaction Energy
                   [Eh]                    [Eh]                  [kcal/mol]            [Eh]                  [kcal/mol]
             1  N/A                         0.000000000000        0.000000000000        0.000000000000        0.000000000000
  FULL/RTN   2  N/A                        -0.005866138350       -3.681057389080       -0.005866138350       -3.681057389080


    Psi4 stopped on: Monday, 26 August 2024 03:59PM
    Psi4 wall time for execution: 0:00:04.23

*** Psi4 exiting successfully. Buy a developer a beer!
