
    -----------------------------------------------------------------------
          Psi4: An Open-Source Ab Initio Electronic Structure Package
                               Psi4 1.10a1.dev53 

                         Git: Rev {dlpno_ccsd_t_weak_pairs} 6358823 dirty


    D. G. A. Smith, L. A. Burns, A. C. Simmonett, R. M. Parrish,
    M. C. Schieber, R. Galvelis, P. Kraus, H. Kruse, R. Di Remigio,
    A. Alenaizan, A. M. James, S. Lehtola, J. P. Misiewicz, M. Scheurer,
    R. A. Shaw, J. B. Schriber, Y. Xie, Z. L. Glick, D. A. Sirianni,
    J. S. O'Brien, J. M. Waldrop, A. Kumar, E. G. Hohenstein,
    B. P. Pritchard, B. R. Brooks, H. F. Schaefer III, A. Yu. Sokolov,
    K. Patkowski, A. E. DePrince III, U. Bozkaya, R. A. King,
    F. A. Evangelista, J. M. Turney, T. D. Crawford, C. D. Sherrill,
    J. Chem. Phys. 152(18) 184108 (2020). https://doi.org/10.1063/5.0006002

                            Additional Code Authors
    E. T. Seidl, C. L. Janssen, E. F. Valeev, M. L. Leininger,
    J. F. Gonthier, R. M. Richard, H. R. McAlexander, M. Saitow, X. Wang,
    P. Verma, M. H. Lechner, A. Jiang, S. Behnle, A. G. Heide,
    M. F. Herbst, and D. L. Poole

             Previous Authors, Complete List of Code Contributors,
                       and Citations for Specific Modules
    https://github.com/psi4/psi4/blob/master/codemeta.json
    https://github.com/psi4/psi4/graphs/contributors
    http://psicode.org/psi4manual/master/introduction.html#citing-psifour

    -----------------------------------------------------------------------


    Psi4 started on: Monday, 28 October 2024 03:49PM

    Process ID: 125310
    Host:       b6-13
    PSIDATADIR: /home/aj48384/github/psi4/objdir_p4sums/stage/share/psi4
    Memory:     500.0 MiB
    Threads:    32
    
  ==> Input File <==

--------------------------------------------------------------------------

# PYTHONPATH must include directory above plugin directory.
#     Define either externally or here, then import plugin.
sys.path.insert(0, './..')
import dlpno_ccsdt_q

molecule {
  0 1
  O  -1.551007  -0.114520   0.000000
  H  -1.934259   0.762503   0.000000
  H  -0.599677   0.040712   0.000000
  @O   1.350625   0.111469   0.000000
  @H   1.680398  -0.373741  -0.758561
  @H   1.680398  -0.373741   0.758561
  symmetry c1
}

set {
  scf_type df
  mp2_type df
  basis cc-pvdz
  df_basis_mp2 cc-pvdz-ri
  pno_convergence tight
  freeze_core true
  e_convergence 1.0e-6
  r_convergence 1.0e-6
  clear_ccsd_integrals false
}

set dlpno_ccsdt_q {
  print 1
  dlpno_cc3 false
}

energy('dlpno_ccsdt_q')

dlpno_ccsdt_q.exampleFN()
--------------------------------------------------------------------------

Scratch directory: /tmp/
   => Libint2 <=

    Primary   basis highest AM E, G, H:  6, 6, 3
    Auxiliary basis highest AM E, G, H:  7, 7, 4
    Onebody   basis highest AM E, G, H:  -, -, -
    Solid Harmonics ordering:            Gaussian

*** tstart() called on b6-13
*** at Mon Oct 28 15:49:31 2024

   => Loading Basis Set <=

    Name: CC-PVDZ
    Role: ORBITAL
    Keyword: BASIS
    atoms 1, 4     entry O          line   198 file /home/aj48384/github/psi4/objdir_p4sums/stage/share/psi4/basis/cc-pvdz.gbs 
    atoms 2-3, 5-6 entry H          line    22 file /home/aj48384/github/psi4/objdir_p4sums/stage/share/psi4/basis/cc-pvdz.gbs 


         ---------------------------------------------------------
                                   SCF
               by Justin Turney, Rob Parrish, Andy Simmonett
                          and Daniel G. A. Smith
                              RHF Reference
                       32 Threads,    500 MiB Core
         ---------------------------------------------------------

  ==> Geometry <==

    Molecular point group: c1
    Full point group: Cs

    Geometry (in Angstrom), charge = 0, multiplicity = 1:

       Center              X                  Y                   Z               Mass       
    ------------   -----------------  -----------------  -----------------  -----------------
         O           -1.485163346101    -0.114724564047     0.000000000000    15.994914619570
         H           -1.868415346101     0.762298435953     0.000000000000     1.007825032230
         H           -0.533833346101     0.040507435953     0.000000000000     1.007825032230
      Gh(O)           1.416468653899     0.111264435953     0.000000000000    15.994914619570
      Gh(H)           1.746241653899    -0.373945564047    -0.758561000000     1.007825032230
      Gh(H)           1.746241653899    -0.373945564047     0.758561000000     1.007825032230

  Running in c1 symmetry.

  Rotational constants: A =      7.15151  B =      0.21457  C =      0.21447 [cm^-1]
  Rotational constants: A = 214396.91837  B =   6432.69061  C =   6429.61818 [MHz]
  Nuclear repulsion =    9.163830181985562

  Charge       = 0
  Multiplicity = 1
  Electrons    = 10
  Nalpha       = 5
  Nbeta        = 5

  ==> Algorithm <==

  SCF Algorithm Type is DF.
  DIIS enabled.
  MOM disabled.
  Fractional occupation disabled.
  Guess Type is SAD.
  Energy threshold   = 1.00e-06
  Density threshold  = 1.00e-08
  Integral threshold = 1.00e-12

  ==> Primary Basis <==

  Basis Set: CC-PVDZ
    Blend: CC-PVDZ
    Number of shells: 24
    Number of basis functions: 48
    Number of Cartesian functions: 50
    Spherical Harmonics?: true
    Max angular momentum: 2

   => Loading Basis Set <=

    Name: (CC-PVDZ AUX)
    Role: JKFIT
    Keyword: DF_BASIS_SCF
    atoms 1, 4     entry O          line   221 file /home/aj48384/github/psi4/objdir_p4sums/stage/share/psi4/basis/cc-pvdz-jkfit.gbs 
    atoms 2-3, 5-6 entry H          line    51 file /home/aj48384/github/psi4/objdir_p4sums/stage/share/psi4/basis/cc-pvdz-jkfit.gbs 

  ==> Integral Setup <==

  DFHelper Memory: AOs need 0.005 GiB; user supplied 0.366 GiB. 
  SCF_SUBTYPE=INCORE selected. In-core MEM_DF algorithm will be used.
  Using in-core AOs.

  ==> MemDFJK: Density-Fitted J/K Matrices <==

    J tasked:                   Yes
    K tasked:                   Yes
    wK tasked:                   No
    OpenMP threads:              32
    Memory [MiB]:               375
    Algorithm:                 Core
    Schwarz Cutoff:           1E-12
    Mask sparsity (%):       0.0000
    Fitting Condition:        1E-10

   => Auxiliary Basis Set <=

  Basis Set: (CC-PVDZ AUX)
    Blend: CC-PVDZ-JKFIT
    Number of shells: 84
    Number of basis functions: 232
    Number of Cartesian functions: 262
    Spherical Harmonics?: true
    Max angular momentum: 3

  Minimum eigenvalue in the overlap matrix is 3.0512226358E-02.
  Reciprocal condition number of the overlap matrix is 7.7055058080E-03.
    Using symmetric orthogonalization.

  ==> Pre-Iterations <==

  SCF Guess: Superposition of Atomic Densities via on-the-fly atomic UHF (no occupation information).

   -------------------------
    Irrep   Nso     Nmo    
   -------------------------
     A         48      48 
   -------------------------
    Total      48      48
   -------------------------

  ==> Iterations <==

                           Total Energy        Delta E     RMS |[F,P]|

   @DF-RHF iter SAD:   -75.50719280796714   -7.55072e+01   0.00000e+00 
   @DF-RHF iter   1:   -75.95402117276818   -4.46828e-01   8.70043e-03 ADIIS/DIIS
   @DF-RHF iter   2:   -76.00719082303850   -5.31697e-02   5.00490e-03 ADIIS/DIIS
   @DF-RHF iter   3:   -76.02650032196421   -1.93095e-02   4.78532e-04 ADIIS/DIIS
   @DF-RHF iter   4:   -76.02690970282976   -4.09381e-04   1.05192e-04 ADIIS/DIIS
   @DF-RHF iter   5:   -76.02692949098997   -1.97882e-05   1.93410e-05 DIIS
   @DF-RHF iter   6:   -76.02693043247679   -9.41487e-07   3.07657e-06 DIIS
   @DF-RHF iter   7:   -76.02693045876207   -2.62853e-08   4.24752e-07 DIIS
   @DF-RHF iter   8:   -76.02693045927614   -5.14078e-10   9.91633e-08 DIIS
   @DF-RHF iter   9:   -76.02693045930896   -3.28129e-11   1.75122e-08 DIIS
   @DF-RHF iter  10:   -76.02693045930965   -6.96332e-13   1.42806e-09 DIIS
  Energy and wave function converged.


  ==> Post-Iterations <==

    Orbital Energies [Eh]
    ---------------------

    Doubly Occupied:                                                      

       1A    -20.552004     2A     -1.335767     3A     -0.697798  
       4A     -0.566808     5A     -0.493506  

    Virtual:                                                              

       6A      0.113072     7A      0.207537     8A      0.243507  
       9A      0.306176    10A      0.582502    11A      0.677281  
      12A      0.765351    13A      0.818765    14A      0.825240  
      15A      0.901511    16A      1.164974    17A      1.199695  
      18A      1.286737    19A      1.460225    20A      1.464686  
      21A      1.619369    22A      1.666114    23A      1.694851  
      24A      1.903679    25A      1.917788    26A      1.956183  
      27A      1.974833    28A      2.087944    29A      2.324277  
      30A      2.468382    31A      2.529781    32A      2.588330  
      33A      2.801086    34A      3.124972    35A      3.287605  
      36A      3.340110    37A      3.514112    38A      3.872040  
      39A      4.159953    40A      4.418982    41A      4.495796  
      42A      4.671685    43A      4.773452    44A      4.934038  
      45A      5.395628    46A      6.527648    47A      6.990070  
      48A     33.469935  

    Final Occupation by Irrep:
              A 
    DOCC [     5 ]
    NA   [     5 ]
    NB   [     5 ]

  @DF-RHF Final Energy:   -76.02693045930965

   => Energetics <=

    Nuclear Repulsion Energy =              9.1638301819855617
    One-Electron Energy =                -123.0897541905356718
    Two-Electron Energy =                  37.8989935492404513
    Total Energy =                        -76.0269304593096535

Computation Completed


Properties will be evaluated at   0.000000,   0.000000,   0.000000 [a0]

Properties computed using the SCF density matrix


 Multipole Moments:

 ------------------------------------------------------------------------------------
     Multipole            Electronic (a.u.)      Nuclear  (a.u.)        Total (a.u.)
 ------------------------------------------------------------------------------------

 L = 1.  Multiply by 2.5417464519 to convert [e a0] to [Debye]
 Dipole X            :         27.3771080          -26.9920079            0.3851001
 Dipole Y            :          0.9312720           -0.2173008            0.7139712
 Dipole Z            :          0.0000000           -0.0000000            0.0000000
 Magnitude           :                                                    0.8112071

 ------------------------------------------------------------------------------------

*** tstop() called on b6-13 at Mon Oct 28 15:49:32 2024
Module time:
	user time   =      12.03 seconds =       0.20 minutes
	system time =       0.69 seconds =       0.01 minutes
	total time  =          1 seconds =       0.02 minutes
Total time:
	user time   =      12.03 seconds =       0.20 minutes
	system time =       0.69 seconds =       0.01 minutes
	total time  =          1 seconds =       0.02 minutes
 MINTS: Wrapper to libmints.
   by Justin Turney

   Calculation information:
      Number of threads:                32
      Number of atoms:                   6
      Number of AO shells:              24
      Number of SO shells:              24
      Number of primitives:             64
      Number of atomic orbitals:        50
      Number of basis functions:        48

      Number of irreps:                  1
      Integral cutoff                 1.00e-12
      Number of functions per irrep: [  48 ]

 OEINTS: Overlap, kinetic, potential, dipole, and quadrupole integrals
         stored in file 35.

      Computing two-electron integrals...done
      Computed 521329 non-zero two-electron integrals.
        Stored in file 33.

   => Loading Basis Set <=

    Name: CC-PVDZ-RI
    Role: RIFIT
    Keyword: DF_BASIS_MP2
    atoms 1, 4     entry O          line   235 file /home/aj48384/github/psi4/objdir_p4sums/stage/share/psi4/basis/cc-pvdz-ri.gbs 
    atoms 2-3, 5-6 entry H          line    19 file /home/aj48384/github/psi4/objdir_p4sums/stage/share/psi4/basis/cc-pvdz-ri.gbs 


Reading options from the DLPNO_CCSDT_Q block
Calling plugin dlpno_ccsdt_q.so.


Plugins that use gradients: set Da, Db, and Lagrangian for gradient theory on the wavefunction. The old way of passing these will stop working as soon as 1.8.   --------------------------------------------
                    DLPNO-CCSD                 
                   by Andy Jiang               
   --------------------------------------------

  DLPNO convergence set to TIGHT.

  Using CEPA0 algorithm for weak pairs
  Detailed DLPNO thresholds and cutoffs:
    T_CUT_PNO        = 1.0000e-07 
    DIAG_SCALE       = 3.0000e-02 
    T_CUT_TRACE      = 9.9900e-01 
    T_CUT_ENERGY     = 9.9700e-01 
    T_CUT_PAIRS      = 1.0000e-05 
    T_CUT_PRE        = 1.0000e-07 
    T_CUT_DO_PRE     = 3.0000e-02 
    T_CUT_MKN        = 1.0000e-03 
    T_CUT_PNO_MP2    = 1.0000e-09 
    T_CUT_TRACE_MP2  = 9.9990e-01 
    T_CUT_ENERGY_MP2 = 9.9900e-01 
    T_CUT_DO         = 5.0000e-03 
    T_CUT_DO_ij      = 1.0000e-05 
    T_CUT_DO_uv      = 1.0000e-05 
    T_CUT_CLMO       = 1.0000e-03 
    T_CUT_CPAO       = 1.0000e-03 
    S_CUT            = 1.0000e-08 
    F_CUT            = 1.0000e-05 
    INTS_TOL (AO)    = 1.0000e-10 


  ==> Basis Set Information <==

   ----------------------------------------------
      NBF   NFRZC   NACT   NDOCC   NVIR   NAUX   
   ----------------------------------------------
       48      1      4       5      43    168
   ----------------------------------------------

  ==> Boys Localizer <==

    Convergence =   1.000E-12
    Maxiter     =        1000

    Iteration                   Metric       Residual
    @Boys    0   2.9788972976156359E+01              -
    @Boys    1   3.1831616996795255E+01   6.857047E-02
    @Boys    2   3.2120204912098160E+01   9.066078E-03
    @Boys    3   3.2155889911605321E+01   1.110983E-03
    @Boys    4   3.2160431747098180E+01   1.412443E-04
    @Boys    5   3.2160762025897426E+01   1.026973E-05
    @Boys    6   3.2160824638239475E+01   1.946855E-06
    @Boys    7   3.2160833631548947E+01   2.796355E-07
    @Boys    8   3.2160835261793586E+01   5.069037E-08
    @Boys    9   3.2160835474147341E+01   6.602868E-09
    @Boys   10   3.2160835535532151E+01   1.908682E-09
    @Boys   11   3.2160835541997777E+01   2.010404E-10
    @Boys   12   3.2160835543460450E+01   4.547996E-11
    @Boys   13   3.2160835543702753E+01   7.534076E-12
    @Boys   14   3.2160835543739957E+01   1.156811E-12
    @Boys   15   3.2160835543744710E+01   1.478050E-13

    Boys Localizer converged.

  Starting Crude Prescreening...
    T_CUT_MKN set to 1.000e-01
    T_CUT_DO  set to 1.000e-02

  ==> Forming Local MO Domains <==

    Auxiliary BFs per Local MO:
      Average =   63 AUX BFs (1 atoms)
      Min     =   56 AUX BFs (1 atoms)
      Max     =   70 AUX BFs (2 atoms)
  
    Projected AOs per Local MO:
      Average =   48 PAOs (6 atoms)
      Min     =   48 PAOs (6 atoms)
      Max     =   48 PAOs (6 atoms)

    Local MOs per Local MO:
      Average =    4 LMOs
      Min     =    4 LMOs
      Max     =    4 LMOs
 
    Screened 0 of 16 LMO pairs (0.00 %)
             0 pairs met overlap criteria
             4 pairs met energy criteria
 
    Screened LMO pair energy =  0.000000000000 

  ==> Merging LMO Domains into LMO Pair Domains <==
  
    Auxiliary BFs per Local MO pair:
      Average =   68 AUX BFs (1 atoms)
      Min     =   56 AUX BFs (1 atoms)
      Max     =   84 AUX BFs (3 atoms)
  
    Local MOs per Local MO pair:
      Average =    4 LMOs
      Min     =    4 LMOs
      Max     =    4 LMOs
  
    Projected AOs per Local MO pair:
      Average =   48 PAOs (6 atoms)
      Min     =   48 PAOs (6 atoms)
      Max     =   48 PAOs (6 atoms)

  ==> Transforming 3-Index Integrals to LMO/PAO basis <==

  ==> Determining Strong and Weak Pairs (Crude Prescreening Step) <==

  ==> Computing SC-LMP2 Pair Energies <==

    Starting semicanonical (non-iterative) LMP2 step...

    PAO-SC-LMP2 Energy:  -0.195564865431

    Eliminated Pairs                = 0
    (Initial) Weak Pairs            = 0
    (Initial) Strong Pairs          = 16
    Surviving Pairs / Total Pairs   = (100.00 %)
    Eliminated Pair dE              = 0.000000000000

  Starting Refined Prescreening...
    T_CUT_MKN reset to 1.000e-03
    T_CUT_DO  reset to 5.000e-03

  ==> Forming Local MO Domains <==

    Auxiliary BFs per Local MO:
      Average =   84 AUX BFs (3 atoms)
      Min     =   84 AUX BFs (3 atoms)
      Max     =   84 AUX BFs (3 atoms)
  
    Projected AOs per Local MO:
      Average =   48 PAOs (6 atoms)
      Min     =   48 PAOs (6 atoms)
      Max     =   48 PAOs (6 atoms)

    Local MOs per Local MO:
      Average =    4 LMOs
      Min     =    4 LMOs
      Max     =    4 LMOs
 

  ==> Merging LMO Domains into LMO Pair Domains <==
  
    Auxiliary BFs per Local MO pair:
      Average =   84 AUX BFs (3 atoms)
      Min     =   84 AUX BFs (3 atoms)
      Max     =   84 AUX BFs (3 atoms)
  
    Local MOs per Local MO pair:
      Average =    4 LMOs
      Min     =    4 LMOs
      Max     =    4 LMOs
  
    Projected AOs per Local MO pair:
      Average =   48 PAOs (6 atoms)
      Min     =   48 PAOs (6 atoms)
      Max     =   48 PAOs (6 atoms)

  ==> Transforming 3-Index Integrals to LMO/PAO basis <==

  ==> Determining Strong and Weak Pairs (Refined Prescreening Step) <==


  ==> Computing SC-LMP2 Pair Energies <==

    Starting semicanonical (non-iterative) LMP2 step...


  ==> Forming Pair Natural Orbitals (for LMP2) <==
    PAO-SC-LMP2 Energy:  -0.195615435746

  
    Natural Orbitals per Local MO pair:
      Avg:  22 NOs 
      Min:  21 NOs 
      Max:  25 NOs 
      Avg Occ Number Tol: 3.009e-09 
      Min Occ Number Tol: 4.393e-11 
      Max Occ Number Tol: 5.403e-09 
      Avg Trace Sum: 1.000000 
      Min Trace Sum: 0.999999 
      Max Trace Sum: 1.000000 
  
    PNO truncation energy = -0.000000093649
    (Additional) Eliminated Pairs   = 0
    (Final) Weak Pairs              = 0
    (Final) Strong Pairs            = 16
    Strong Pairs / Total Pairs      = (100.00 %)
    (Cumulative) Eliminated Pair dE = 0.000000000000
    (Initial) Weak Pair dE          = 0.000000000000


    Auxiliary BFs per Local MO:
      Average =   84 AUX BFs (3 atoms)
      Min     =   84 AUX BFs (3 atoms)
      Max     =   84 AUX BFs (3 atoms)
  
    Projected AOs per Local MO:
      Average =   48 PAOs (6 atoms)
      Min     =   48 PAOs (6 atoms)
      Max     =   48 PAOs (6 atoms)

    Local MOs per Local MO:
      Average =    4 LMOs
      Min     =    4 LMOs
      Max     =    4 LMOs
 

  ==> Merging LMO Domains into LMO Pair Domains <==
  
    Auxiliary BFs per Local MO pair:
      Average =   84 AUX BFs (3 atoms)
      Min     =   84 AUX BFs (3 atoms)
      Max     =   84 AUX BFs (3 atoms)
  
    Local MOs per Local MO pair:
      Average =    4 LMOs
      Min     =    4 LMOs
      Max     =    4 LMOs
  
    Projected AOs per Local MO pair:
      Average =   48 PAOs (6 atoms)
      Min     =   48 PAOs (6 atoms)
      Max     =   48 PAOs (6 atoms)
  ==> PNO-LMP2 Memory Estimate <== 

    PNO/PNO overlaps       : 0.000 [GiB]
    Total Memory Given     : 0.488 [GiB]


  ==> Iterative Local MP2 with Pair Natural Orbitals (PNOs) <==

    E_CONVERGENCE = 1.00e-08
    R_CONVERGENCE = 1.00e-08

                         Corr. Energy    Delta E     Max R     Time (s)
  @PNO-LMP2 iter   0:  -0.199901262841 -1.999e-01  1.077e-03        0
  @PNO-LMP2 iter   1:  -0.201947930614 -2.047e-03  3.030e-04        0
  @PNO-LMP2 iter   2:  -0.202085628255 -1.377e-04  5.828e-05        0
  @PNO-LMP2 iter   3:  -0.202103586752 -1.796e-05  1.160e-05        0
  @PNO-LMP2 iter   4:  -0.202104621306 -1.035e-06  1.381e-06        0
  @PNO-LMP2 iter   5:  -0.202104808228 -1.869e-07  2.512e-07        0
  @PNO-LMP2 iter   6:  -0.202104808404 -1.753e-10  4.231e-08        0
  @PNO-LMP2 iter   7:  -0.202104791299  1.710e-08  9.066e-09        0
  @PNO-LMP2 iter   8:  -0.202104789555  1.744e-09  1.490e-09        0
  
  Total DLPNO-MP2 Correlation Energy:  -0.202104883204 
    MP2 Correlation Energy:            -0.202104789555 
    Eliminated Pair MP2 Correction:     0.000000000000 
    Dipole Correction:                  0.000000000000 
    PNO Truncation Correction:         -0.000000093649 


  ==> Forming Pair Natural Orbitals (for LCCSD) <==
  
    Natural Orbitals per Local MO pair:
      Avg:  19 NOs 
      Min:  19 NOs 
      Max:  22 NOs 
      Avg Occ Number Tol: 1.515e-07 
      Min Occ Number Tol: 5.074e-09 
      Max Occ Number Tol: 3.164e-07 
      Avg Trace Sum: 0.999990 
      Min Trace Sum: 0.999984 
      Max Trace Sum: 1.000000 
  
    LMP2 Weak pair energy = 0.000000000000
    PNO truncation energy = -0.000003570133

    Coefficient sparsity in AO -> LMO transform:  50.00 % 
    Coefficient sparsity in AO -> PAO transform:  50.00 % 
    Coefficient sparsity in combined transforms:  50.00 % 

    Storing transformed LMO/LMO, LMO/PAO, and PAO/PAO integrals in sparse format.
    Required memory: 0.002 GiB (50.00 % reduction from dense format) 

  ==> Transforming 3-Index Integrals to LMO/LMO basis <==

  ==> Transforming 3-Index Integrals to PAO/PAO basis <==
    PAO/PAO Integral Memory After Screening: 0.001 [GiB]

  ==> DLPNO-CCSD Memory Requirements <== 

    (q | i j) integrals        : 0.000 [GiB]
    (q | i a) integrals        : 0.000 [GiB]
    (q | a b) integrals        : 0.001 [GiB]
    (m i | n j)                : 0.000 [GiB]
    (i j | k c_{ij})           : 0.000 [GiB]
    (i a_{ij} | j b_{ij})      : 0.000 [GiB]
    (i k | a_{ij} b_{kj})      : 0.000 [GiB]
    (i a_{ij} | b_{ij} c_{ij}) : 0.001 [GiB]
    (Q_{ij}|m_{ij} a_{ij})     : 0.000 [GiB]
    (Q_{ij}|a_{ij} b_{ij})     : 0.002 [GiB]
    PNO/PNO overlaps           : 0.000 [GiB]

    Total Memory Given         : 0.488 [GiB]
    Total Memory Required      : 0.006 [GiB]

    Using high memory PNO overlap algorithm... 

    Storing (Q_{ij}|m_{ij} a_{ij}) integrals in RAM... 

    Storing (Q_{ij}|a_{ij} b_{ij}) integrals in RAM... 

    Computing CC integrals...

    Integral Computation Complete!!! Time Elapsed:    0 seconds


  ==> Local CCSD (T1-transformed Hamiltonian) <==

    E_CONVERGENCE = 1.00e-06
    R_CONVERGENCE = 1.00e-06

                      Corr. Energy    Delta E     Max R1     Max R2     Time (s)
  @LCCSD iter   0:  -0.207544651781 -2.075e-01  4.246e-03  2.068e-03        0
  @LCCSD iter   1:  -0.210995697307 -3.451e-03  8.580e-04  7.294e-04        0
  @LCCSD iter   2:  -0.211563168272 -5.675e-04  2.882e-04  2.099e-04        0
  @LCCSD iter   3:  -0.211757125671 -1.940e-04  9.325e-05  6.624e-05        0
  @LCCSD iter   4:  -0.211787799518 -3.067e-05  3.712e-05  1.468e-05        0
  @LCCSD iter   5:  -0.211788055389 -2.559e-07  2.165e-05  4.933e-06        0
  @LCCSD iter   6:  -0.211788724182 -6.688e-07  9.154e-06  2.541e-06        0
  @LCCSD iter   7:  -0.211789635074 -9.109e-07  4.154e-06  8.427e-07        0
  @LCCSD iter   8:  -0.211790109235 -4.742e-07  1.509e-06  3.083e-07        0
  @LCCSD iter   9:  -0.211790334853 -2.256e-07  3.795e-07  1.147e-07        0

  T1 Diagnostic: 0.00611135 
  
  Total DLPNO-CCSD Correlation Energy:  -0.211793904986 
    CCSD Correlation Energy:            -0.211790334853 
    Weak Pair Contribution:              0.000000000000 
    Eliminated Pair MP2 Correction:      0.000000000000 
    Dipole Pair Correction:              0.000000000000 
    PNO Truncation Correction:          -0.000003570133 


  @Total DLPNO-CCSD Energy: -76.238724364295 
   --------------------------------------------
                    DLPNO-CCSD(T)              
                    by Andy Jiang              
   --------------------------------------------

  DLPNO convergence set to TIGHT.

  Detailed DLPNO thresholds and cutoffs:
    ALGORITHM    = ITERATIVE (T)   
    STORAGE      = IN CORE   
    T_CUT_TNO (T0)             = 1.000e-09 
    T_CUT_DO_TRIPLES (T0)      = 1.000e-02 
    T_CUT_MKN_TRIPLES (T0)     = 1.000e-02 
    T_CUT_TRIPLES_WEAK (T0)    = 1.000e-07 
    T_CUT_TNO_PRE (T0)         = 1.000e-07 
    T_CUT_DO_TRIPLES_PRE (T0)  = 2.000e-02 
    T_CUT_MKN_TRIPLES_PRE (T0) = 1.000e-01 
    TRIPLES_MAX_WEAK_PAIRS     =      2   
    T_CUT_TNO_STRONG (T)       = 1.000e-08 
    T_CUT_TNO_WEAK (T)         = 1.000e-07 
    F_CUT_T (T)                = 1.000e-03 
    T_CUT_ITER (T)             = 1.000e-03 



   Starting Triplet Prescreening...
     T_CUT_TNO set to 1.000e-07 
     T_CUT_DO  set to 2.000e-02 
     T_CUT_MKN set to 1.000e-01 

  
    Number of (Unique) Local MO triplets: 16
    Max Number of Possible (Unique) LMO Triplets: 16 (Ratio: 1.0000)
    Natural Orbitals per Local MO triplet:
      Avg:  19 NOs 
      Min:  19 NOs 
      Max:  21 NOs 
  
    (Relavent) Semicanonical LCCSD(T0) Computation Complete!!! Time Elapsed:    0 seconds


   Continuing computation with surviving triplets...
     Eliminated all triples with energy less than 1.000e-07 Eh... 

    * Energy Contribution From Screened Triplets: 0.000000000000 

     T_CUT_TNO (re)set to 1.000e-09 
     T_CUT_DO  (re)set to 1.000e-02 
     T_CUT_MKN (re)set to 1.000e-02 

  
    Number of (Unique) Local MO triplets: 16
    Max Number of Possible (Unique) LMO Triplets: 16 (Ratio: 1.0000)
    Natural Orbitals per Local MO triplet:
      Avg:  23 NOs 
      Min:  22 NOs 
      Max:  25 NOs 
  
    (Relavent) Semicanonical LCCSD(T0) Computation Complete!!! Time Elapsed:    0 seconds

    DLPNO-CCSD(T0) Correlation Energy:  -0.214765918798 
    * DLPNO-CCSD Contribution:          -0.211790334853 
    * DLPNO-(T0) Contribution:          -0.002975583945 
    * Screened Triplets Contribution:    0.000000000000 



  ==> Computing Full Iterative (T) <==

  ==> Sorting Triplets <== 

    Number of Strong Triplets:     14, Total Triplets:     16, Ratio: 0.8750

     T_CUT_TNO (re)set to 1.000e-08 for strong triples 
     T_CUT_TNO (re)set to 1.000e-07 for weak triples   

  
    Number of (Unique) Local MO triplets: 16
    Max Number of Possible (Unique) LMO Triplets: 16 (Ratio: 1.0000)
    Natural Orbitals per Local MO triplet:
      Avg:  20 NOs 
      Min:  19 NOs 
      Max:  22 NOs 
  

  ==> DLPNO-(T) Memory Requirements <== 

    (q | i j) integrals    : 0.000 [GiB]
    (q | i a) integrals    : 0.000 [GiB]
    (q | a b) integrals    : 0.001 [GiB]
    W_{ijk}^{abc}          : 0.001 [GiB]
    V_{ijk}^{abc}          : 0.001 [GiB]
    T_{ijk}^{abc}          : 0.001 [GiB]
    Total Memory Given     : 0.488 [GiB]
    Total Memory Required  : 0.004 [GiB]

    Storing all X_{ijk}^{abc} quantities in RAM...

    (Relavent) Semicanonical LCCSD(T0) Computation Complete!!! Time Elapsed:    0 seconds


  ==> Local CCSD(T) <==

    E_CONVERGENCE = 1.00e-06
    R_CONVERGENCE = 1.00e-06

                         Corr. Energy    Delta E     Max R     Time (s)
  @LCCSD(T) iter   1:  -0.003071224253 -3.071e-03  2.461e-05        0
  @LCCSD(T) iter   2:  -0.003088332939 -1.711e-05  3.949e-06        0
  @LCCSD(T) iter   3:  -0.003088865101 -5.322e-07  8.023e-07        0

    DLPNO-CCSD(T0) energy at looser tolerance:  -0.002971492093
    DLPNO-CCSD(T)  energy at looser tolerance:  -0.003088865101
    * Net Iterative (T) contribution:           -0.000117373008

  
  Total DLPNO-CCSD(T) Correlation Energy:  -0.214886861938 
    DLPNO-CCSD Contribution:               -0.211793904986 
    DLPNO-(T) Contribution:                -0.003092956953 
    Screened Triplets Contribution:         0.000000000000 
    Andy Jiang... FOR THREEEEEEEEEEE!!!


  @Total DLPNO-CCSD(T) Energy: -76.241817321248 
   --------------------------------------------
                    DLPNO-CCSDT                
                   by Andy Jiang               
   --------------------------------------------

  DLPNO convergence set to TIGHT.

  Detailed DLPNO thresholds and cutoffs:
    T_CUT_TNO_STRONG           = 1.000e-08 
    T_CUT_TNO_WEAK             = 1.000e-07 
    T_CUT_DO_TRIPLES           = 1.000e-02 
    T_CUT_MKN_TRIPLES          = 1.000e-02 
    F_CUT_T                    = 1.000e-03 

 ==> DLPNO-CCSDT Memory Estimate <== 

    (i j | l_{ijk} a_{ijk})        : 0.001 [GiB]
    (i a_{ijk} | l_{ijk} b_{ijk})  : 0.010 [GiB]
    (i a_{ijk} | b_{ijk} c_{ijk})  : 0.051 [GiB]
    (Q_{ijk} | l_{ijk} [i,j,k])    : 0.002 [GiB]
    (Q_{ijk} | l_{ijk} a_{ijk})    : 0.034 [GiB]
    (Q_{ijk} | a_{ijk} b_{ijk})    : 0.059 [GiB]
    Total Memory Required          : 0.157 [GiB]


  ==> Local CCSDT <==

    E_CONVERGENCE = 1.00e-06
    R_CONVERGENCE = 1.00e-06

                       Corr. Energy    Delta E     Max R1     Max R2     Max R3     Time (s)
  @LCCSDT iter   1:  -0.214666065659 -2.147e-01  4.338e-04  2.773e-04  5.269e-05        0
  @LCCSDT iter   2:  -0.214790722690 -1.247e-04  1.369e-04  5.441e-05  2.181e-05        1
  @LCCSDT iter   3:  -0.215012785917 -2.221e-04  5.631e-05  3.531e-05  7.269e-06        0
  @LCCSDT iter   4:  -0.215043805520 -3.102e-05  2.092e-05  9.760e-06  2.646e-06        0
  @LCCSDT iter   5:  -0.215048119763 -4.314e-06  8.683e-06  5.301e-06  1.140e-06        1
  @LCCSDT iter   6:  -0.215047979409  1.404e-07  3.396e-06  1.779e-06  3.825e-07        0
  @LCCSDT iter   7:  -0.215048855437 -8.760e-07  1.644e-06  8.384e-07  1.365e-07        0
  @LCCSDT iter   8:  -0.215048531564  3.239e-07  8.301e-07  2.993e-07  6.285e-08        1

  T1 Diagnostic: 0.00589808 
  
  Total DLPNO-CCSDT Correlation Energy:  -0.215056193549 
    LCCSDT Correlation Energy:           -0.215048531564 
    Weak Pair Contribution:               0.000000000000 
    Eliminated Pair MP2 Correction:       0.000000000000 
    Dipole Pair Correction:               0.000000000000 
    PNO Truncation Correction:           -0.000003570133 
    Triples Rank Correction (T0):        -0.000004091852 
    Houston is (still) a delinquent


  @Total DLPNO-CCSDT Energy: -76.241986652858 

    Psi4 stopped on: Monday, 28 October 2024 03:49PM
    Psi4 wall time for execution: 0:00:03.58

*** Psi4 exiting successfully. Buy a developer a beer!
